
     Program PWSCF v.7.5 starts on 20Dec2025 at 22: 8: 5 

     This program is part of the open-source Quantum ESPRESSO suite
     for quantum simulation of materials; please cite
         "P. Giannozzi et al., J. Phys.:Condens. Matter 21 395502 (2009);
         "P. Giannozzi et al., J. Phys.:Condens. Matter 29 465901 (2017);
         "P. Giannozzi et al., J. Chem. Phys. 152 154105 (2020);
          URL http://www.quantum-espresso.org", 
     in publications or presentations arising from this work. More details at
     http://www.quantum-espresso.org/quote

     Serial version
     3168 MiB available memory on the printing compute node when the environment starts

     Waiting for input...
     Reading input from standard input

     Current dimensions of program PWSCF are:
     Max number of different atomic species (ntypx) = 10
     Max number of k-points (npk) =  40000
     Max angular momentum in pseudopotentials (lmaxx) =  4
     Message from routine iosys:
     BEWARE:  force calculation with tetrahedra (not recommanded)
     Message from routine iosys:
     BEWARE: stress calculation with tetrahedra (not recommanded)


     G-vector sticks info
     --------------------
     sticks:   dense  smooth     PW     G-vecs:    dense   smooth      PW
     Sum        1581    1581    457                47257    47257    7249

     Using Slab Decomposition



     bravais-lattice index     =            1
     lattice parameter (alat)  =       7.0440  a.u.
     unit-cell volume          =     349.5150 (a.u.)^3
     number of atoms/cell      =            7
     number of atomic types    =            2
     number of electrons       =        32.00
     number of Kohn-Sham states=           20
     kinetic-energy cutoff     =     100.0000  Ry
     charge density cutoff     =     400.0000  Ry
     scf convergence threshold =      1.0E-04
     mixing beta               =       0.4000
     number of iterations used =            8  plain     mixing
     Exchange-correlation= PBE
                           (   1   4   3   4   0   0   0)

     celldm(1)=   7.044042  celldm(2)=   0.000000  celldm(3)=   0.000000
     celldm(4)=   0.000000  celldm(5)=   0.000000  celldm(6)=   0.000000

     crystal axes: (cart. coord. in units of alat)
               a(1) = (   1.000000   0.000000   0.000000 )  
               a(2) = (   0.000000   1.000000   0.000000 )  
               a(3) = (   0.000000   0.000000   1.000000 )  

     reciprocal axes: (cart. coord. in units 2 pi/alat)
               b(1) = (  1.000000  0.000000  0.000000 )  
               b(2) = (  0.000000  1.000000  0.000000 )  
               b(3) = (  0.000000  0.000000  1.000000 )  


     PseudoPot. # 1 for Be read from file:
     ./PSEUDO/Be_ONCV_PBE_sr.upf
     MD5 check sum: f32703449d889b1d166f7ecd0677d20c
     Pseudo is Norm-conserving, Zval =  4.0
     Generated using ONCVPSP code by D. R. Hamann
     Using radial grid of 1358 points,  4 beta functions with: 
                l(1) =   0
                l(2) =   0
                l(3) =   1
                l(4) =   1

     PseudoPot. # 2 for N  read from file:
     ./PSEUDO/N_ONCV_PBE_sr.upf
     MD5 check sum: 18c6af81dac9c5a2d6d52ed11cf7bfee
     Pseudo is Norm-conserving + core correction, Zval =  5.0
     Generated using ONCVPSP code by D. R. Hamann
     Using radial grid of 1058 points,  4 beta functions with: 
                l(1) =   0
                l(2) =   0
                l(3) =   1
                l(4) =   1

     atomic species   valence    mass     pseudopotential
     Be                4.00    22.98970     Be( 1.00)
     N                 5.00    35.45300     N ( 1.00)

     48 Sym. Ops., with inversion, found



   Cartesian axes

     site n.     atom                  positions (alat units)
         1        Be     tau(   1) = (   0.5000000   0.5000000   0.0000000  )
         2        Be     tau(   2) = (   0.5000000   0.0000000   0.5000000  )
         3        Be     tau(   3) = (   0.0000000   0.5000000   0.5000000  )
         4        N      tau(   4) = (   0.0000000   0.0000000   0.5000000  )
         5        N      tau(   5) = (   0.5000000   0.5000000   0.5000000  )
         6        N      tau(   6) = (   0.5000000   0.0000000   0.0000000  )
         7        N      tau(   7) = (   0.0000000   0.5000000   0.0000000  )

     number of k points=    56 (tetrahedron method)
                       cart. coord. in units 2pi/alat
        k(    1) = (   0.0000000   0.0000000   0.0000000), wk =   0.0020000
        k(    2) = (   0.0000000   0.0000000   0.1000000), wk =   0.0120000
        k(    3) = (   0.0000000   0.0000000   0.2000000), wk =   0.0120000
        k(    4) = (   0.0000000   0.0000000   0.3000000), wk =   0.0120000
        k(    5) = (   0.0000000   0.0000000   0.4000000), wk =   0.0120000
        k(    6) = (   0.0000000   0.0000000  -0.5000000), wk =   0.0060000
        k(    7) = (   0.0000000   0.1000000   0.1000000), wk =   0.0240000
        k(    8) = (   0.0000000   0.1000000   0.2000000), wk =   0.0480000
        k(    9) = (   0.0000000   0.1000000   0.3000000), wk =   0.0480000
        k(   10) = (   0.0000000   0.1000000   0.4000000), wk =   0.0480000
        k(   11) = (   0.0000000   0.1000000  -0.5000000), wk =   0.0240000
        k(   12) = (   0.0000000   0.2000000   0.2000000), wk =   0.0240000
        k(   13) = (   0.0000000   0.2000000   0.3000000), wk =   0.0480000
        k(   14) = (   0.0000000   0.2000000   0.4000000), wk =   0.0480000
        k(   15) = (   0.0000000   0.2000000  -0.5000000), wk =   0.0240000
        k(   16) = (   0.0000000   0.3000000   0.3000000), wk =   0.0240000
        k(   17) = (   0.0000000   0.3000000   0.4000000), wk =   0.0480000
        k(   18) = (   0.0000000   0.3000000  -0.5000000), wk =   0.0240000
        k(   19) = (   0.0000000   0.4000000   0.4000000), wk =   0.0240000
        k(   20) = (   0.0000000   0.4000000  -0.5000000), wk =   0.0240000
        k(   21) = (   0.0000000  -0.5000000  -0.5000000), wk =   0.0060000
        k(   22) = (   0.1000000   0.1000000   0.1000000), wk =   0.0160000
        k(   23) = (   0.1000000   0.1000000   0.2000000), wk =   0.0480000
        k(   24) = (   0.1000000   0.1000000   0.3000000), wk =   0.0480000
        k(   25) = (   0.1000000   0.1000000   0.4000000), wk =   0.0480000
        k(   26) = (   0.1000000   0.1000000  -0.5000000), wk =   0.0240000
        k(   27) = (   0.1000000   0.2000000   0.2000000), wk =   0.0480000
        k(   28) = (   0.1000000   0.2000000   0.3000000), wk =   0.0960000
        k(   29) = (   0.1000000   0.2000000   0.4000000), wk =   0.0960000
        k(   30) = (   0.1000000   0.2000000  -0.5000000), wk =   0.0480000
        k(   31) = (   0.1000000   0.3000000   0.3000000), wk =   0.0480000
        k(   32) = (   0.1000000   0.3000000   0.4000000), wk =   0.0960000
        k(   33) = (   0.1000000   0.3000000  -0.5000000), wk =   0.0480000
        k(   34) = (   0.1000000   0.4000000   0.4000000), wk =   0.0480000
        k(   35) = (   0.1000000   0.4000000  -0.5000000), wk =   0.0480000
        k(   36) = (   0.1000000  -0.5000000  -0.5000000), wk =   0.0120000
        k(   37) = (   0.2000000   0.2000000   0.2000000), wk =   0.0160000
        k(   38) = (   0.2000000   0.2000000   0.3000000), wk =   0.0480000
        k(   39) = (   0.2000000   0.2000000   0.4000000), wk =   0.0480000
        k(   40) = (   0.2000000   0.2000000  -0.5000000), wk =   0.0240000
        k(   41) = (   0.2000000   0.3000000   0.3000000), wk =   0.0480000
        k(   42) = (   0.2000000   0.3000000   0.4000000), wk =   0.0960000
        k(   43) = (   0.2000000   0.3000000  -0.5000000), wk =   0.0480000
        k(   44) = (   0.2000000   0.4000000   0.4000000), wk =   0.0480000
        k(   45) = (   0.2000000   0.4000000  -0.5000000), wk =   0.0480000
        k(   46) = (   0.2000000  -0.5000000  -0.5000000), wk =   0.0120000
        k(   47) = (   0.3000000   0.3000000   0.3000000), wk =   0.0160000
        k(   48) = (   0.3000000   0.3000000   0.4000000), wk =   0.0480000
        k(   49) = (   0.3000000   0.3000000  -0.5000000), wk =   0.0240000
        k(   50) = (   0.3000000   0.4000000   0.4000000), wk =   0.0480000
        k(   51) = (   0.3000000   0.4000000  -0.5000000), wk =   0.0480000
        k(   52) = (   0.3000000  -0.5000000  -0.5000000), wk =   0.0120000
        k(   53) = (   0.4000000   0.4000000   0.4000000), wk =   0.0160000
        k(   54) = (   0.4000000   0.4000000  -0.5000000), wk =   0.0240000
        k(   55) = (   0.4000000  -0.5000000  -0.5000000), wk =   0.0120000
        k(   56) = (  -0.5000000  -0.5000000  -0.5000000), wk =   0.0020000

     Dense  grid:    47257 G-vectors     FFT dimensions: (  45,  45,  45)

     Estimated max dynamical RAM per process >     143.27 MB

     Initial potential from superposition of free atoms

     starting charge      31.9994, renormalised to      32.0000
     Starting wfcs are   22 randomized atomic wfcs

     total cpu time spent up to now is        4.4 secs

     Self-consistent Calculation

     iteration #  1     ecut=   100.00 Ry     beta= 0.40
     Davidson diagonalization with overlap
     ethr =  1.00E-02,  avg # of iterations =  3.9

     total cpu time spent up to now is       13.6 secs

     total energy              =    -166.08822186 Ry
     estimated scf accuracy    <       0.72205902 Ry

     iteration #  2     ecut=   100.00 Ry     beta= 0.40
     Davidson diagonalization with overlap
     ethr =  2.26E-03,  avg # of iterations =  2.0

     total cpu time spent up to now is       20.8 secs

     total energy              =    -166.00979143 Ry
     estimated scf accuracy    <       2.81569778 Ry

     iteration #  3     ecut=   100.00 Ry     beta= 0.40
     Davidson diagonalization with overlap
     ethr =  2.26E-03,  avg # of iterations =  2.0

     total cpu time spent up to now is       27.7 secs

     total energy              =    -166.34388880 Ry
     estimated scf accuracy    <       0.06334205 Ry

     iteration #  4     ecut=   100.00 Ry     beta= 0.40
     Davidson diagonalization with overlap
     ethr =  1.98E-04,  avg # of iterations =  3.3

     total cpu time spent up to now is       34.8 secs

     total energy              =    -166.34663566 Ry
     estimated scf accuracy    <       0.01266265 Ry

     iteration #  5     ecut=   100.00 Ry     beta= 0.40
     Davidson diagonalization with overlap
     ethr =  3.96E-05,  avg # of iterations =  4.3

     total cpu time spent up to now is       41.7 secs

     total energy              =    -166.34860932 Ry
     estimated scf accuracy    <       0.00037918 Ry

     iteration #  6     ecut=   100.00 Ry     beta= 0.40
     Davidson diagonalization with overlap
     c_bands:  1 eigenvalues not converged
     c_bands:  1 eigenvalues not converged
     c_bands:  1 eigenvalues not converged
     ethr =  1.18E-06,  avg # of iterations =  9.3

     total cpu time spent up to now is       51.4 secs

     total energy              =    -166.34870021 Ry
     estimated scf accuracy    <       0.00012081 Ry

     iteration #  7     ecut=   100.00 Ry     beta= 0.40
     Davidson diagonalization with overlap
     ethr =  3.78E-07,  avg # of iterations =  2.0

     total cpu time spent up to now is       58.9 secs

     End of self-consistent calculation

          k = 0.0000 0.0000 0.0000 (  5887 PWs)   bands (ev):

   -91.1806 -91.1775 -91.1775  -9.5604  -4.7209  -4.7209  -4.6027   0.6972
     0.6972   0.6972   5.0272   5.0272   5.0272   6.2373   6.2373   6.2373
     8.7775   8.7775   8.7775  16.4718

          k = 0.0000 0.0000 0.1000 (  5891 PWs)   bands (ev):

   -91.1805 -91.1776 -91.1775  -9.4912  -4.9569  -4.7260  -4.6382   0.7749
     0.7749   1.0522   4.9572   4.9572   5.0299   6.1790   6.1790   6.2073
     8.6388   8.6976   8.6976  16.6222

          k = 0.0000 0.0000 0.2000 (  5899 PWs)   bands (ev):

   -91.1803 -91.1778 -91.1775  -9.2845  -5.6027  -4.7392  -4.6389   1.0042
     1.0042   1.9385   4.6703   4.6703   5.0370   6.1273   6.1329   6.1329
     8.2376   8.4749   8.4749  17.0702

          k = 0.0000 0.0000 0.3000 (  5890 PWs)   bands (ev):

   -91.1801 -91.1781 -91.1775  -8.9435  -6.3838  -4.7554  -4.6321   1.3693
     1.3693   3.0753   4.1355   4.1355   5.0456   6.0176   6.2406   6.2406
     7.6137   8.1586   8.1586  17.3035

          k = 0.0000 0.0000 0.4000 (  5902 PWs)   bands (ev):

   -91.1797 -91.1784 -91.1775  -8.4763  -7.1520  -4.7685  -4.6258   1.8218
     1.8218   3.5152   3.5152   4.2645   5.0525   5.8554   6.4413   6.4413
     6.8666   7.8372   7.8372  17.9876

          k = 0.0000 0.0000-0.5000 (  5910 PWs)   bands (ev):

   -91.1796 -91.1786 -91.1775  -8.0014  -7.7323  -4.7734  -4.6233   2.1198
     2.1198   3.1506   3.1506   5.0551   5.2878   5.3442   6.4539   6.5584
     6.5584   7.6800   7.6800  18.8490

          k = 0.0000 0.1000 0.1000 (  5902 PWs)   bands (ev):

   -91.1805 -91.1776 -91.1776  -9.4224  -4.9563  -4.9418  -4.6853   0.8526
     1.0534   1.1728   4.7873   4.9115   5.1334   5.9987   6.0988   6.3498
     8.3373   8.6145   8.7992  16.7004

          k = 0.0000 0.1000 0.2000 (  5894 PWs)   bands (ev):

   -91.1803 -91.1778 -91.1776  -9.2171  -5.5791  -4.9305  -4.7047   1.0815
     1.2775   1.9718   4.4523   4.6799   5.2165   5.9012   6.0036   6.4284
     7.8481   8.3828   8.7116  16.9346

          k = 0.0000 0.1000 0.3000 (  5884 PWs)   bands (ev):

   -91.1800 -91.1781 -91.1776  -8.8785  -6.3458  -4.9046  -4.7254   1.4462
     1.5711   3.0141   3.9992   4.1802   5.2456   5.9293   6.0843   6.4975
     7.2471   8.0550   8.4338  17.3758

          k = 0.0000 0.1000 0.4000 (  5910 PWs)   bands (ev):

   -91.1797 -91.1784 -91.1776  -8.4152  -7.1033  -4.8803  -4.7450   1.8989
     1.9307   3.3454   3.5717   4.2555   5.2521   5.8472   6.2798   6.5641
     6.7467   7.7235   8.0610  18.0378

          k = 0.0000 0.1000-0.5000 (  5900 PWs)   bands (ev):

   -91.1795 -91.1786 -91.1776  -7.9458  -7.6758  -4.8695  -4.7540   2.1596
     2.1985   3.0879   3.2083   5.0558   5.2544   5.4054   6.3667   6.3968
     6.8466   7.5622   7.8449  18.8790

          k = 0.0000 0.2000 0.2000 (  5904 PWs)   bands (ev):

   -91.1801 -91.1779 -91.1777  -9.0161  -5.5496  -5.4680  -4.7701   1.3095
     1.8353   2.1815   4.0837   4.6257   5.4902   5.7469   5.8254   6.6975
     7.2727   8.1280   8.8356  17.1318

          k = 0.0000 0.2000 0.3000 (  5892 PWs)   bands (ev):

   -91.1798 -91.1781 -91.1777  -8.6850  -6.2361  -5.3967  -4.8632   1.6732
     2.0561   2.8588   3.7848   4.2867   5.6647   5.6865   5.9501   6.6905
     6.9072   7.7707   8.7252  17.4636

          k = 0.0000 0.2000 0.4000 (  5890 PWs)   bands (ev):

   -91.1795 -91.1784 -91.1777  -8.2333  -6.9600  -5.2653  -4.9829   2.1266
     2.2004   3.0777   3.7309   4.0832   5.6837   5.8236   5.8438   6.5032
     7.1353   7.4148   8.4106  18.0694

          k = 0.0000 0.2000-0.5000 (  5894 PWs)   bands (ev):

   -91.1794 -91.1786 -91.1777  -7.7807  -7.5089  -5.1386  -5.1049   2.2779
     2.4322   2.9903   3.3729   4.5323   5.3614   5.7928   5.9548   6.5560
     7.2447   7.3476   8.1559  18.9104

          k = 0.0000 0.3000 0.3000 (  5912 PWs)   bands (ev):

   -91.1796 -91.1782 -91.1779  -8.3673  -6.1327  -5.9729  -5.0560   2.0360
     2.5387   2.7203   3.6743   4.3016   5.2934   5.7839   6.1669   6.4895
     7.2656   7.3789   8.8079  17.5431

          k = 0.0000 0.3000 0.4000 (  5918 PWs)   bands (ev):

   -91.1793 -91.1784 -91.1779  -7.9363  -6.7327  -5.8147  -5.2948   2.4926
     2.5168   2.9068   3.8117   3.9494   5.2564   5.3048   6.4357   6.8934
     6.9987   7.5572   8.6399  17.9112

          k = 0.0000 0.3000-0.5000 (  5914 PWs)   bands (ev):

   -91.1792 -91.1786 -91.1780  -7.5128  -7.2389  -5.5845  -5.5316   2.4731
     2.8126   2.9590   3.6136   4.0029   5.0215   5.3319   6.5181   6.8230
     7.1271   7.7671   8.4259  18.5455

          k = 0.0000 0.4000 0.4000 (  5930 PWs)   bands (ev):

   -91.1791 -91.1785 -91.1782  -7.5373  -6.5169  -6.3174  -5.6596   2.7168
     2.9164   2.9626   3.5943   4.0589   4.7432   4.8871   6.6100   7.0285
     7.3571   7.8591   8.6592  17.9231

          k = 0.0000 0.4000-0.5000 (  5920 PWs)   bands (ev):

   -91.1789 -91.1786 -91.1782  -7.1613  -6.8796  -6.0951  -5.9878   2.7424
     2.9939   3.3249   3.5229   3.8576   4.6341   4.7037   6.4385   7.2285
     7.6652   7.9555   8.5772  18.2027

          k = 0.0000-0.5000-0.5000 (  5912 PWs)   bands (ev):

   -91.1786 -91.1786 -91.1786  -6.8768  -6.4659  -6.4380  -6.4380   3.0231
     3.0231   3.1707   3.9203   3.9702   3.9702   4.5743   6.2735   7.6348
     7.8937   7.8937   8.6115  18.0710

          k = 0.1000 0.1000 0.1000 (  5908 PWs)   bands (ev):

   -91.1804 -91.1776 -91.1776  -9.3542  -4.9561  -4.9561  -4.9186   1.1050
     1.1050   1.3055   4.7709   4.7709   5.2283   5.6944   6.3211   6.3211
     8.0348   8.7241   8.7241  16.7714

          k = 0.1000 0.1000 0.2000 (  5894 PWs)   bands (ev):

   -91.1802 -91.1778 -91.1776  -9.1503  -5.5586  -4.9557  -4.9153   1.2554
     1.3854   2.0152   4.4858   4.5582   5.3471   5.5185   6.2966   6.4574
     7.5022   8.5138   8.6960  17.0843

          k = 0.1000 0.1000 0.3000 (  5894 PWs)   bands (ev):

   -91.1799 -91.1781 -91.1776  -8.8143  -6.3101  -4.9554  -4.8934   1.4849
     1.7182   2.9699   4.0716   4.1111   5.4082   5.6545   6.3809   6.5139
     6.8987   8.2136   8.4409  17.4215

          k = 0.1000 0.1000 0.4000 (  5893 PWs)   bands (ev):

   -91.1796 -91.1784 -91.1776  -8.3549  -7.0562  -4.9553  -4.8753   1.7337
     2.1599   3.2567   3.7410   4.1502   5.4208   5.7182   6.3993   6.5611
     6.6215   7.9067   8.0300  18.0638

          k = 0.1000 0.1000-0.5000 (  5894 PWs)   bands (ev):

   -91.1795 -91.1786 -91.1776  -7.8914  -7.6205  -4.9553  -4.8684   1.8573
     2.6344   2.7637   3.5699   4.7286   5.3993   5.4207   6.3075   6.6712
     6.7612   7.7561   7.7602  18.8978

          k = 0.1000 0.2000 0.2000 (  5889 PWs)   bands (ev):

   -91.1800 -91.1779 -91.1777  -8.9510  -5.5376  -5.4593  -4.9664   1.4239
     1.7835   2.2792   4.2156   4.6142   5.2128   5.5825   6.3147   6.7048
     6.9083   8.3600   8.7745  17.1607

          k = 0.1000 0.2000 0.3000 (  5907 PWs)   bands (ev):

   -91.1798 -91.1781 -91.1778  -8.6229  -6.2078  -5.4038  -5.0185   1.5872
     2.0328   2.9145   3.8852   4.3771   5.3897   5.7872   6.2403   6.4233
     6.9087   8.0481   8.6748  17.4834

          k = 0.1000 0.2000 0.4000 (  5905 PWs)   bands (ev):

   -91.1795 -91.1784 -91.1778  -8.1758  -6.9181  -5.2983  -5.0938   1.6962
     2.3054   3.2848   3.8289   4.0775   5.4209   5.8679   6.1242   6.5251
     7.0932   7.7116   8.3623  18.0744

          k = 0.1000 0.2000-0.5000 (  5898 PWs)   bands (ev):

   -91.1793 -91.1786 -91.1778  -7.7301  -7.4572  -5.1986  -5.1818   1.7306
     2.5045   3.1342   3.9538   4.1290   5.1339   5.8941   6.3578   6.5521
     7.2703   7.5254   8.1139  18.8928

          k = 0.1000 0.3000 0.3000 (  5903 PWs)   bands (ev):

   -91.1796 -91.1782 -91.1779  -8.3089  -6.1168  -5.9584  -5.1684   1.7081
     2.2591   3.0476   3.6855   4.6112   5.2275   5.7030   6.2162   6.5024
     7.2799   7.7189   8.7704  17.5537

          k = 0.1000 0.3000 0.4000 (  5916 PWs)   bands (ev):

   -91.1793 -91.1784 -91.1780  -7.8838  -6.7002  -5.8197  -5.3642   1.7845
     2.3545   3.3644   3.5818   4.4517   4.9357   5.7034   6.4849   6.8484
     7.3961   7.5562   8.6155  17.9098

          k = 0.1000 0.3000-0.5000 (  5922 PWs)   bands (ev):

   -91.1791 -91.1786 -91.1780  -7.4692  -7.1938  -5.6212  -5.5608   1.8045
     2.3916   3.4864   3.6608   4.2942   4.6927   5.8546   6.5708   6.9880
     7.3140   7.7310   8.4157  18.5451

          k = 0.1000 0.4000 0.4000 (  5905 PWs)   bands (ev):

   -91.1790 -91.1785 -91.1782  -7.4930  -6.4982  -6.3001  -5.6915   1.9434
     2.3950   3.0564   3.8966   4.5080   4.6658   5.3468   6.9426   7.0580
     7.4127   7.8660   8.6546  17.9019

          k = 0.1000 0.4000-0.5000 (  5920 PWs)   bands (ev):

   -91.1789 -91.1786 -91.1783  -7.1291  -6.8448  -6.0987  -5.9896   2.0516
     2.3885   2.9324   4.1590   4.3212   4.5709   5.2834   6.8233   7.2558
     7.6899   7.9492   8.5858  18.1691

          k = 0.1000-0.5000-0.5000 (  5908 PWs)   bands (ev):

   -91.1786 -91.1786 -91.1786  -6.8590  -6.4450  -6.4197  -6.4197   2.4068
     2.4068   2.4711   4.1753   4.6868   4.6868   4.7263   6.6970   7.6499
     7.9030   7.9030   8.6276  18.1498

          k = 0.2000 0.2000 0.2000 (  5893 PWs)   bands (ev):

   -91.1799 -91.1779 -91.1779  -8.7568  -5.5374  -5.4364  -5.4364   1.6534
     1.6534   2.5533   4.6065   4.6065   4.6970   5.7994   6.2665   6.7280
     6.7280   8.6024   8.6024  17.2839

          k = 0.2000 0.2000 0.3000 (  5913 PWs)   bands (ev):

   -91.1797 -91.1781 -91.1779  -8.4379  -6.1286  -5.4508  -5.4076   1.5020
     1.8570   2.9132   4.2418   4.6237   5.2072   5.7187   6.0287   6.7853
     6.9914   8.3530   8.5903  17.5765

          k = 0.2000 0.2000 0.4000 (  5903 PWs)   bands (ev):

   -91.1794 -91.1784 -91.1779  -8.0054  -6.7962  -5.4161  -5.3839   1.3860
     1.9902   3.2554   3.9936   4.6518   4.9012   6.1706   6.2563   6.9032
     7.1102   8.0940   8.2967  18.1009

          k = 0.2000 0.2000-0.5000 (  5908 PWs)   bands (ev):

   -91.1792 -91.1786 -91.1779  -7.5808  -7.3052  -5.4024  -5.3748   1.3431
     2.0363   3.4144   3.9570   4.6140   4.6652   6.2093   6.7608   6.9870
     7.0966   7.9660   8.0221  18.7946

          k = 0.2000 0.3000 0.3000 (  5906 PWs)   bands (ev):

   -91.1794 -91.1782 -91.1780  -8.1357  -6.0773  -5.9199  -5.4777   1.3992
     1.7468   2.7778   4.4092   4.8661   5.1891   5.5954   6.3680   6.9056
     7.3164   8.2113   8.6635  17.6016

          k = 0.2000 0.3000 0.4000 (  5887 PWs)   bands (ev):

   -91.1792 -91.1784 -91.1781  -7.7291  -6.6081  -5.8421  -5.5638   1.2641
     1.7546   2.7092   4.2485   4.6595   5.2560   6.2967   6.6524   7.0309
     7.5536   7.9597   8.5477  17.9128

          k = 0.2000 0.3000-0.5000 (  5886 PWs)   bands (ev):

   -91.1790 -91.1786 -91.1781  -7.3418  -7.0622  -5.7334  -5.6526   1.2105
     1.7571   2.7234   4.0641   4.6803   5.2411   6.6835   6.7478   7.1663
     7.6227   7.8284   8.3845  18.5222

          k = 0.2000 0.4000 0.4000 (  5904 PWs)   bands (ev):

   -91.1790 -91.1785 -91.1782  -7.3639  -6.4490  -6.2535  -5.7897   1.2765
     1.6660   2.2824   3.8253   5.0555   5.6320   6.2458   7.1411   7.3064
     7.7674   7.8800   8.6412  17.8214

          k = 0.2000 0.4000-0.5000 (  5902 PWs)   bands (ev):

   -91.1788 -91.1786 -91.1783  -7.0377  -6.7453  -6.1145  -6.0015   1.3191
     1.6423   2.1150   3.6501   5.2806   5.6180   6.2775   7.3340   7.4591
     7.7991   7.9275   8.6079  18.0331

          k = 0.2000-0.5000-0.5000 (  5912 PWs)   bands (ev):

   -91.1786 -91.1786 -91.1786  -6.8113  -6.3890  -6.3708  -6.3708   1.6193
     1.6193   1.6486   3.4931   5.7561   5.7561   5.8492   7.4461   7.6899
     7.9281   7.9281   8.6704  17.8905

          k = 0.3000 0.3000 0.3000 (  5881 PWs)   bands (ev):

   -91.1793 -91.1782 -91.1782  -7.8545  -6.0779  -5.8707  -5.8707   1.2868
     1.2868   2.3603   4.1362   5.5380   5.6890   5.6890   6.6232   7.3606
     7.3606   8.5063   8.5063  17.8558

          k = 0.3000 0.3000 0.4000 (  5896 PWs)   bands (ev):

   -91.1790 -91.1784 -91.1782  -7.4818  -6.4743  -5.9321  -5.8296   0.9807
     1.2950   2.0848   3.6599   5.6329   5.9851   6.6635   6.9014   7.4039
     7.6196   8.3410   8.4959  17.8049

          k = 0.3000 0.3000-0.5000 (  5908 PWs)   bands (ev):

   -91.1789 -91.1786 -91.1782  -7.1433  -6.8562  -5.9196  -5.8135   0.8738
     1.3126   2.0008   3.4680   5.6488   6.0805   7.0214   7.4048   7.4325
     7.4535   8.2592   8.3801  18.0413

          k = 0.3000 0.4000 0.4000 (  5888 PWs)   bands (ev):

   -91.1789 -91.1785 -91.1783  -7.1637  -6.3898  -6.1937  -5.9535   0.8591
     1.0755   1.6168   3.2133   6.1983   6.5449   6.9425   7.2645   7.5389
     7.8853   8.2843   8.6206  17.5539

          k = 0.3000 0.4000-0.5000 (  5894 PWs)   bands (ev):

   -91.1787 -91.1786 -91.1784  -6.9046  -6.5964  -6.1536  -6.0403   0.8096
     1.0688   1.4114   3.0468   6.3724   6.6120   7.1824   7.4563   7.7351
     7.8849   8.2218   8.6336  17.6457

          k = 0.3000-0.5000-0.5000 (  5900 PWs)   bands (ev):

   -91.1786 -91.1786 -91.1786  -6.7500  -6.3172  -6.3078  -6.3078   0.9948
     0.9948   1.0064   2.8934   6.7761   6.7761   6.9185   7.7404   7.9622
     7.9622   8.1357   8.7245  17.5054

          k = 0.4000 0.4000 0.4000 (  5917 PWs)   bands (ev):

   -91.1788 -91.1785 -91.1785  -6.9240  -6.3653  -6.1432  -6.1432   0.6961
     0.6961   1.1259   2.7904   7.1736   7.1736   7.2082   7.4354   7.8733
     7.8734   8.5958   8.5958  17.2323

          k = 0.4000 0.4000-0.5000 (  5908 PWs)   bands (ev):

   -91.1787 -91.1786 -91.1785  -6.7665  -6.4229  -6.2155  -6.1234   0.5652
     0.7149   0.8907   2.6388   7.2355   7.3249   7.5957   7.7652   7.8646
     7.8766   8.5805   8.6751  17.2143

          k = 0.4000-0.5000-0.5000 (  5924 PWs)   bands (ev):

   -91.1786 -91.1786 -91.1786  -6.6983  -6.2570  -6.2544  -6.2544   0.5960
     0.5960   0.5987   2.4946   7.5369   7.5369   7.7355   7.7821   8.0043
     8.0043   8.6145   8.7693  17.0626

          k =-0.5000-0.5000-0.5000 (  5904 PWs)   bands (ev):

   -91.1786 -91.1786 -91.1786  -6.6781  -6.2335  -6.2335  -6.2335   0.4587
     0.4587   0.4587   2.3551   7.7983   7.7983   7.7983   8.0528   8.0528
     8.0528   8.7867   8.7867  16.8406

     the Fermi energy is     7.1849 ev

!    total energy              =    -166.34869774 Ry
     estimated scf accuracy    <       0.00001212 Ry

     The total energy is the sum of the following terms:
     one-electron contribution =     -40.95203699 Ry
     hartree contribution      =      23.95559206 Ry
     xc contribution           =     -38.42637886 Ry
     ewald contribution        =    -110.92587395 Ry

     convergence has been achieved in   7 iterations

     Forces acting on atoms (cartesian axes, Ry/au):

     atom    1 type  1   force =     0.00000000    0.00000000    0.00000000
     atom    2 type  1   force =     0.00000000    0.00000000    0.00000000
     atom    3 type  1   force =     0.00000000    0.00000000    0.00000000
     atom    4 type  2   force =     0.00000000    0.00000000    0.00000000
     atom    5 type  2   force =     0.00000000    0.00000000    0.00000000
     atom    6 type  2   force =     0.00000000    0.00000000    0.00000000
     atom    7 type  2   force =     0.00000000    0.00000000    0.00000000

     Total force =     0.000000     Total SCF correction =     0.000000


     Computing stress (Cartesian axis) and pressure

          total   stress  (Ry/bohr**3)                   (kbar)     P=      -86.62
  -0.00058880   0.00000000   0.00000000          -86.62        0.00        0.00
   0.00000000  -0.00058880   0.00000000            0.00      -86.62        0.00
   0.00000000   0.00000000  -0.00058880            0.00        0.00      -86.62


     Writing all to output data dir ./tmp/BeNvac.save/ :
     XML data file, charge density, pseudopotentials, collected wavefunctions

     init_run     :      3.95s CPU      4.26s WALL (       1 calls)
     electrons    :     53.35s CPU     54.58s WALL (       1 calls)
     forces       :      1.46s CPU      1.48s WALL (       1 calls)
     stress       :      5.04s CPU      5.06s WALL (       1 calls)

     Called by init_run:
     wfcinit      :      3.57s CPU      3.85s WALL (       1 calls)
     potinit      :      0.14s CPU      0.15s WALL (       1 calls)
     hinit0       :      0.17s CPU      0.17s WALL (       1 calls)

     Called by electrons:
     c_bands      :     47.67s CPU     48.69s WALL (       7 calls)
     sum_band     :      5.50s CPU      5.69s WALL (       7 calls)
     v_of_rho     :      0.20s CPU      0.22s WALL (       8 calls)
     mix_rho      :      0.03s CPU      0.03s WALL (       7 calls)

     Called by c_bands:
     init_us_2    :      1.13s CPU      1.20s WALL (     952 calls)
     cegterg      :     46.23s CPU     47.22s WALL (     392 calls)

     Called by *egterg:
     cdiaghg      :      0.47s CPU      0.50s WALL (    1890 calls)
     h_psi        :     35.67s CPU     36.62s WALL (    1946 calls)
     g_psi        :      0.18s CPU      0.19s WALL (    1498 calls)

     Called by h_psi:
     h_psi:calbec :      6.26s CPU      6.30s WALL (    1946 calls)
     vloc_psi     :     23.79s CPU     24.57s WALL (    1946 calls)
                                        0.00s GPU  (    1946 calls)
     add_vuspsi   :      5.40s CPU      5.44s WALL (    1946 calls)

     General routines
     calbec       :     11.56s CPU     11.63s WALL (    2898 calls)
     fft          :      0.10s CPU      0.10s WALL (     104 calls)
     ffts         :      0.01s CPU      0.01s WALL (       7 calls)
     fftw         :     24.98s CPU     25.90s WALL (   48858 calls)


     PWSCF        :   1m 3.89s CPU   1m 5.59s WALL


   This run was terminated on:  22: 9:10  20Dec2025            

=------------------------------------------------------------------------------=
   JOB DONE.
=------------------------------------------------------------------------------=
