
     Program BANDS v.7.5 starts on 19Dec2025 at 14:58: 7 

     This program is part of the open-source Quantum ESPRESSO suite
     for quantum simulation of materials; please cite
         "P. Giannozzi et al., J. Phys.:Condens. Matter 21 395502 (2009);
         "P. Giannozzi et al., J. Phys.:Condens. Matter 29 465901 (2017);
         "P. Giannozzi et al., J. Chem. Phys. 152 154105 (2020);
          URL http://www.quantum-espresso.org", 
     in publications or presentations arising from this work. More details at
     http://www.quantum-espresso.org/quote

     Serial version
     539 MiB available memory on the printing compute node when the environment starts


     Reading xml data from directory:

     ./tmp/allu.save/

     IMPORTANT: XC functional enforced from input :
     Exchange-correlation= PW
                           (   1   4   0   0   0   0   0)
     Any further DFT definition will be discarded
     Please, verify this is what you really want


     G-vector sticks info
     --------------------
     sticks:   dense  smooth     PW     G-vecs:    dense   smooth      PW
     Sum         409     409    121                 5329     5329     941

     Using Slab Decomposition

     Reading collected, re-writing distributed wavefunctions
     high-symmetry point:  0.0000 0.0000 0.0000   x coordinate   0.0000
     high-symmetry point:  0.0000 0.0000 1.0000   x coordinate   1.0000
     high-symmetry point: -0.5000 0.0000 1.0000   x coordinate   1.5000
     high-symmetry point: -0.5000-0.5000 0.5000   x coordinate   2.2071
     high-symmetry point:  0.0000 0.0000 0.0000   x coordinate   3.0731

     Plottable bands (eV) written to file allu.bands.dat.gnu
     Bands written to file allu.bands.dat

 **************************************************************************

                    xk=(   0.00000,   0.00000,   0.00000  )

     point group O_h (m-3m) 
     there are 10 classes
     the character table:

       E     8C3   3C2   6C4   6C2'  i     8S6   3s_h  6S4   6s_d 
A_1g   1.00  1.00  1.00  1.00  1.00  1.00  1.00  1.00  1.00  1.00
A_2g   1.00  1.00  1.00 -1.00 -1.00  1.00  1.00  1.00 -1.00 -1.00
E_g    2.00 -1.00  2.00  0.00  0.00  2.00 -1.00  2.00  0.00  0.00
T_1g   3.00  0.00 -1.00  1.00 -1.00  3.00  0.00 -1.00  1.00 -1.00
T_2g   3.00  0.00 -1.00 -1.00  1.00  3.00  0.00 -1.00 -1.00  1.00
A_1u   1.00  1.00  1.00  1.00  1.00 -1.00 -1.00 -1.00 -1.00 -1.00
A_2u   1.00  1.00  1.00 -1.00 -1.00 -1.00 -1.00 -1.00  1.00  1.00
E_u    2.00 -1.00  2.00  0.00  0.00 -2.00  1.00 -2.00  0.00  0.00
T_1u   3.00  0.00 -1.00  1.00 -1.00 -3.00  0.00  1.00 -1.00  1.00
T_2u   3.00  0.00 -1.00 -1.00  1.00 -3.00  0.00  1.00  1.00 -1.00

     the symmetry operations in each class and the name of the first element:

     E        1
                                                                 
     8C3     17   19   20   18   24   21   22   23
                                                                 
     3C2      2    4    3
                                                                 
     6C4      7    8   15   16   12   11
                                                                 
     6C2'     5    6   14   13   10    9
                                                                 
     i       25
                                                                 
     8S6     41   43   44   42   48   45   46   47
                                                                 
     3s_h    26   28   27
                                                                 
     6S4     31   32   39   40   36   35
                                                                 
     6s_d    29   30   38   37   34   33
                                                                 

     Band symmetry, O_h (m-3m)  point group:

     e(  1 -  1) =     -3.41320  eV     1   --> A_1g G_1   G_1+
     e(  2 -  4) =     20.18760  eV     3   --> T_2g G_25' G_5+
     e(  5 -  7) =     21.41034  eV     3   --> T_1u G_15  G_4-
     e(  8 -  8) =     24.23721  eV     1   --> A_2u G_2'  G_2-

 **************************************************************************

 **************************************************************************

                    xk=(   0.00000,   0.00000,   0.02500  )

     point group C_4v (4mm) 
     there are  5 classes
     the character table:

       E     2C4   C2    2s_v  2s_d 
A_1    1.00  1.00  1.00  1.00  1.00
A_2    1.00  1.00  1.00 -1.00 -1.00
B_1    1.00 -1.00  1.00  1.00 -1.00
B_2    1.00 -1.00  1.00 -1.00  1.00
E      2.00  0.00 -2.00  0.00  0.00

     the symmetry operations in each class and the name of the first element:

     E        1
                                                                 
     2C4      3    4
                                                                 
     C2       2
                                                                 
     2s_v     5    6
                                                                 
     2s_d     7    8
                                                                 

     Band symmetry, C_4v (4mm)  point group:

     e(  1 -  1) =     -3.40757  eV     1   --> A_1  G_1 D_1   
     e(  2 -  3) =     20.08555  eV     2   --> E    G_5 D_5   
     e(  4 -  4) =     20.14290  eV     1   --> B_2  G_4 D_2'  
     e(  5 -  5) =     21.39667  eV     1   --> A_1  G_1 D_1   
     e(  6 -  7) =     21.52035  eV     2   --> E    G_5 D_5   
     e(  8 -  8) =     24.29313  eV     1   --> B_2  G_4 D_2'  

 **************************************************************************

 **************************************************************************

                    xk=(   0.00000,   0.00000,   0.05000  )

     Band symmetry, C_4v (4mm)  point group:

     e(  1 -  1) =     -3.39069  eV     1   --> A_1  G_1 D_1   
     e(  2 -  3) =     19.84692  eV     2   --> E    G_5 D_5   
     e(  4 -  4) =     20.01566  eV     1   --> B_2  G_4 D_2'  
     e(  5 -  5) =     21.35608  eV     1   --> A_1  G_1 D_1   
     e(  6 -  7) =     21.78284  eV     2   --> E    G_5 D_5   
     e(  8 -  8) =     24.45405  eV     1   --> B_2  G_4 D_2'  

 **************************************************************************

 **************************************************************************

                    xk=(   0.00000,   0.00000,   0.07500  )

     Band symmetry, C_4v (4mm)  point group:

     e(  1 -  1) =     -3.36257  eV     1   --> A_1  G_1 D_1   
     e(  2 -  3) =     19.55425  eV     2   --> E    G_5 D_5   
     e(  4 -  4) =     19.82242  eV     1   --> B_2  G_4 D_2'  
     e(  5 -  5) =     21.28975  eV     1   --> A_1  G_1 D_1   
     e(  6 -  7) =     22.11504  eV     2   --> E    G_5 D_5   
     e(  8 -  8) =     24.70342  eV     1   --> B_2  G_4 D_2'  

 **************************************************************************

 **************************************************************************

                    xk=(   0.00000,   0.00000,   0.10000  )

     Band symmetry, C_4v (4mm)  point group:

     e(  1 -  1) =     -3.32320  eV     1   --> A_1  G_1 D_1   
     e(  2 -  3) =     19.24354  eV     2   --> E    G_5 D_5   
     e(  4 -  4) =     19.58194  eV     1   --> B_2  G_4 D_2'  
     e(  5 -  5) =     21.19948  eV     1   --> A_1  G_1 D_1   
     e(  6 -  7) =     22.48079  eV     2   --> E    G_5 D_5   
     e(  8 -  8) =     25.02241  eV     1   --> B_2  G_4 D_2'  

 **************************************************************************

 **************************************************************************

                    xk=(   0.00000,   0.00000,   0.12500  )

     Band symmetry, C_4v (4mm)  point group:

     e(  1 -  1) =     -3.27261  eV     1   --> A_1  G_1 D_1   
     e(  2 -  3) =     18.92878  eV     2   --> E    G_5 D_5   
     e(  4 -  4) =     19.31040  eV     1   --> B_2  G_4 D_2'  
     e(  5 -  5) =     21.08757  eV     1   --> A_1  G_1 D_1   
     e(  6 -  7) =     22.86607  eV     2   --> E    G_5 D_5   
     e(  8 -  8) =     25.20440  eV     1   --> A_1  G_1 D_1   

 **************************************************************************

 **************************************************************************

                    xk=(   0.00000,   0.00000,   0.15000  )

     Band symmetry, C_4v (4mm)  point group:

     e(  1 -  1) =     -3.21079  eV     1   --> A_1  G_1 D_1   
     e(  2 -  3) =     18.61586  eV     2   --> E    G_5 D_5   
     e(  4 -  4) =     19.01980  eV     1   --> B_2  G_4 D_2'  
     e(  5 -  5) =     20.95655  eV     1   --> A_1  G_1 D_1   
     e(  6 -  7) =     23.26447  eV     2   --> E    G_5 D_5   
     e(  8 -  8) =     24.64305  eV     1   --> A_1  G_1 D_1   

 **************************************************************************

 **************************************************************************

                    xk=(   0.00000,   0.00000,   0.17500  )

     Band symmetry, C_4v (4mm)  point group:

     e(  1 -  1) =     -3.13777  eV     1   --> A_1  G_1 D_1   
     e(  2 -  3) =     18.30766  eV     2   --> E    G_5 D_5   
     e(  4 -  4) =     18.71863  eV     1   --> B_2  G_4 D_2'  
     e(  5 -  5) =     20.80903  eV     1   --> A_1  G_1 D_1   
     e(  6 -  7) =     23.67247  eV     2   --> E    G_5 D_5   
     e(  8 -  8) =     24.04908  eV     1   --> A_1  G_1 D_1   

 **************************************************************************

 **************************************************************************

                    xk=(   0.00000,   0.00000,   0.20000  )

     Band symmetry, C_4v (4mm)  point group:

     e(  1 -  1) =     -3.05355  eV     1   --> A_1  G_1 D_1   
     e(  2 -  3) =     18.00594  eV     2   --> E    G_5 D_5   
     e(  4 -  4) =     18.41281  eV     1   --> B_2  G_4 D_2'  
     e(  5 -  5) =     20.64751  eV     1   --> A_1  G_1 D_1   
     e(  6 -  6) =     23.43429  eV     1   --> A_1  G_1 D_1   
     e(  7 -  8) =     24.08811  eV     2   --> E    G_5 D_5   

 **************************************************************************

 **************************************************************************

                    xk=(   0.00000,   0.00000,   0.22500  )

     Band symmetry, C_4v (4mm)  point group:

     e(  1 -  1) =     -2.95817  eV     1   --> A_1  G_1 D_1   
     e(  2 -  3) =     17.71155  eV     2   --> E    G_5 D_5   
     e(  4 -  4) =     18.10641  eV     1   --> B_2  G_4 D_2'  
     e(  5 -  5) =     20.47428  eV     1   --> A_1  G_1 D_1   
     e(  6 -  6) =     22.80681  eV     1   --> A_1  G_1 D_1   
     e(  7 -  8) =     24.50964  eV     2   --> E    G_5 D_5   

 **************************************************************************

 **************************************************************************

                    xk=(   0.00000,   0.00000,   0.25000  )

     Band symmetry, C_4v (4mm)  point group:

     e(  1 -  1) =     -2.85164  eV     1   --> A_1  G_1 D_1   
     e(  2 -  3) =     17.42514  eV     2   --> E    G_5 D_5   
     e(  4 -  4) =     17.80232  eV     1   --> B_2  G_4 D_2'  
     e(  5 -  5) =     20.29113  eV     1   --> A_1  G_1 D_1   
     e(  6 -  6) =     22.17269  eV     1   --> A_1  G_1 D_1   
     e(  7 -  8) =     24.93569  eV     2   --> E    G_5 D_5   

 **************************************************************************

 **************************************************************************

                    xk=(   0.00000,   0.00000,   0.27500  )

     Band symmetry, C_4v (4mm)  point group:

     e(  1 -  1) =     -2.73399  eV     1   --> A_1  G_1 D_1   
     e(  2 -  3) =     17.14712  eV     2   --> E    G_5 D_5   
     e(  4 -  4) =     17.50260  eV     1   --> B_2  G_4 D_2'  
     e(  5 -  5) =     20.09900  eV     1   --> A_1  G_1 D_1   
     e(  6 -  6) =     21.53703  eV     1   --> A_1  G_1 D_1   
     e(  7 -  8) =     25.36495  eV     2   --> E    G_5 D_5   

 **************************************************************************

 **************************************************************************

                    xk=(   0.00000,   0.00000,   0.30000  )

     Band symmetry, C_4v (4mm)  point group:

     e(  1 -  1) =     -2.60525  eV     1   --> A_1  G_1 D_1   
     e(  2 -  3) =     16.87778  eV     2   --> E    G_5 D_5   
     e(  4 -  4) =     17.20874  eV     1   --> B_2  G_4 D_2'  
     e(  5 -  5) =     19.89653  eV     1   --> A_1  G_1 D_1   
     e(  6 -  6) =     20.90593  eV     1   --> A_1  G_1 D_1   
     e(  7 -  8) =     25.79610  eV     2   --> E    G_5 D_5   

 **************************************************************************

 **************************************************************************

                    xk=(   0.00000,   0.00000,   0.32500  )

     Band symmetry, C_4v (4mm)  point group:

     e(  1 -  1) =     -2.46544  eV     1   --> A_1  G_1 D_1   
     e(  2 -  3) =     16.61732  eV     2   --> E    G_5 D_5   
     e(  4 -  4) =     16.92185  eV     1   --> B_2  G_4 D_2'  
     e(  5 -  5) =     19.67337  eV     1   --> A_1  G_1 D_1   
     e(  6 -  6) =     20.29357  eV     1   --> A_1  G_1 D_1   
     e(  7 -  8) =     26.22780  eV     2   --> E    G_5 D_5   

 **************************************************************************

 **************************************************************************

                    xk=(   0.00000,   0.00000,   0.35000  )

     Band symmetry, C_4v (4mm)  point group:

     e(  1 -  1) =     -2.31459  eV     1   --> A_1  G_1 D_1   
     e(  2 -  3) =     16.36592  eV     2   --> E    G_5 D_5   
     e(  4 -  4) =     16.64276  eV     1   --> B_2  G_4 D_2'  
     e(  5 -  5) =     19.36913  eV     1   --> A_1  G_1 D_1   
     e(  6 -  6) =     19.76341  eV     1   --> A_1  G_1 D_1   
     e(  7 -  8) =     26.65863  eV     2   --> E    G_5 D_5   

 **************************************************************************

 **************************************************************************

                    xk=(   0.00000,   0.00000,   0.37500  )

     Band symmetry, C_4v (4mm)  point group:

     e(  1 -  1) =     -2.15275  eV     1   --> A_1  G_1 D_1   
     e(  2 -  3) =     16.12366  eV     2   --> E    G_5 D_5   
     e(  4 -  4) =     16.37211  eV     1   --> B_2  G_4 D_2'  
     e(  5 -  5) =     18.86734  eV     1   --> A_1  G_1 D_1   
     e(  6 -  6) =     19.43447  eV     1   --> A_1  G_1 D_1   
     e(  7 -  8) =     27.08705  eV     2   --> E    G_5 D_5   

 **************************************************************************

 **************************************************************************

                    xk=(   0.00000,   0.00000,   0.40000  )

     Band symmetry, C_4v (4mm)  point group:

     e(  1 -  1) =     -1.97995  eV     1   --> A_1  G_1 D_1   
     e(  2 -  3) =     15.89067  eV     2   --> E    G_5 D_5   
     e(  4 -  4) =     16.11040  eV     1   --> B_2  G_4 D_2'  
     e(  5 -  5) =     18.27104  eV     1   --> A_1  G_1 D_1   
     e(  6 -  6) =     19.20598  eV     1   --> A_1  G_1 D_1   
     e(  7 -  8) =     27.51167  eV     2   --> E    G_5 D_5   

 **************************************************************************

 **************************************************************************

                    xk=(   0.00000,   0.00000,   0.42500  )

     Band symmetry, C_4v (4mm)  point group:

     e(  1 -  1) =     -1.79624  eV     1   --> A_1  G_1 D_1   
     e(  2 -  3) =     15.66701  eV     2   --> E    G_5 D_5   
     e(  4 -  4) =     15.85802  eV     1   --> B_2  G_4 D_2'  
     e(  5 -  5) =     17.65816  eV     1   --> A_1  G_1 D_1   
     e(  6 -  6) =     19.00166  eV     1   --> A_1  G_1 D_1   
     e(  7 -  8) =     27.93089  eV     2   --> E    G_5 D_5   

 **************************************************************************

 **************************************************************************

                    xk=(   0.00000,   0.00000,   0.45000  )

     Band symmetry, C_4v (4mm)  point group:

     e(  1 -  1) =     -1.60165  eV     1   --> A_1  G_1 D_1   
     e(  2 -  3) =     15.45273  eV     2   --> E    G_5 D_5   
     e(  4 -  4) =     15.61527  eV     1   --> B_2  G_4 D_2'  
     e(  5 -  5) =     17.04452  eV     1   --> A_1  G_1 D_1   
     e(  6 -  6) =     18.80731  eV     1   --> A_1  G_1 D_1   
     e(  7 -  8) =     28.34321  eV     2   --> E    G_5 D_5   

 **************************************************************************

 **************************************************************************

                    xk=(   0.00000,   0.00000,   0.47500  )

     Band symmetry, C_4v (4mm)  point group:

     e(  1 -  1) =     -1.39624  eV     1   --> A_1  G_1 D_1   
     e(  2 -  3) =     15.24787  eV     2   --> E    G_5 D_5   
     e(  4 -  4) =     15.38242  eV     1   --> B_2  G_4 D_2'  
     e(  5 -  5) =     16.43453  eV     1   --> A_1  G_1 D_1   
     e(  6 -  6) =     18.61987  eV     1   --> A_1  G_1 D_1   
     e(  7 -  7) =     28.60454  eV     1   --> B_1  G_3 D_2   
     e(  8 -  8) =     28.74725  eV     1   -->   ?

 **************************************************************************

 **************************************************************************

                    xk=(   0.00000,   0.00000,   0.50000  )

     Band symmetry, C_4v (4mm)  point group:

     e(  1 -  1) =     -1.18006  eV     1   --> A_1  G_1 D_1   
     e(  2 -  3) =     15.05248  eV     2   --> E    G_5 D_5   
     e(  4 -  4) =     15.15969  eV     1   --> B_2  G_4 D_2'  
     e(  5 -  5) =     15.83005  eV     1   --> A_1  G_1 D_1   
     e(  6 -  6) =     18.43871  eV     1   --> A_1  G_1 D_1   
     e(  7 -  7) =     28.79390  eV     1   --> B_1  G_3 D_2   
     e(  8 -  8) =     29.14188  eV     1   -->   ?

 **************************************************************************

 **************************************************************************

                    xk=(   0.00000,   0.00000,   0.52500  )

     Band symmetry, C_4v (4mm)  point group:

     e(  1 -  1) =     -0.95317  eV     1   --> A_1  G_1 D_1   
     e(  2 -  3) =     14.86655  eV     2   --> E    G_5 D_5   
     e(  4 -  4) =     14.94712  eV     1   --> B_2  G_4 D_2'  
     e(  5 -  5) =     15.23191  eV     1   --> A_1  G_1 D_1   
     e(  6 -  6) =     18.26380  eV     1   --> A_1  G_1 D_1   
     e(  7 -  7) =     28.99082  eV     1   --> B_1  G_3 D_2   
     e(  8 -  8) =     29.52578  eV     1   -->   ?

 **************************************************************************

 **************************************************************************

                    xk=(   0.00000,   0.00000,   0.55000  )

     Band symmetry, C_4v (4mm)  point group:

     e(  1 -  1) =     -0.71562  eV     1   --> A_1  G_1 D_1   
     e(  2 -  2) =     14.64091  eV     1   --> A_1  G_1 D_1   
     e(  3 -  4) =     14.69014  eV     2   --> E    G_5 D_5   
     e(  5 -  5) =     14.74500  eV     1   --> B_2  G_4 D_2'  
     e(  6 -  6) =     18.09548  eV     1   --> A_1  G_1 D_1   
     e(  7 -  7) =     29.19514  eV     1   --> B_1  G_3 D_2   
     e(  8 -  8) =     29.89834  eV     1   -->   ?

 **************************************************************************

 **************************************************************************

                    xk=(   0.00000,   0.00000,   0.57500  )

     Band symmetry, C_4v (4mm)  point group:

     e(  1 -  1) =     -0.46750  eV     1   --> A_1  G_1 D_1   
     e(  2 -  2) =     14.05741  eV     1   --> A_1  G_1 D_1   
     e(  3 -  4) =     14.52324  eV     2   --> E    G_5 D_5   
     e(  5 -  5) =     14.55328  eV     1   --> B_2  G_4 D_2'  
     e(  6 -  6) =     17.93407  eV     1   --> A_1  G_1 D_1   
     e(  7 -  7) =     29.40629  eV     1   --> B_1  G_3 D_2   
     e(  8 -  8) =     30.25898  eV     1   -->   ?

 **************************************************************************

 **************************************************************************

                    xk=(   0.00000,   0.00000,   0.60000  )

     Band symmetry, C_4v (4mm)  point group:

     e(  1 -  1) =     -0.20886  eV     1   --> A_1  G_1 D_1   
     e(  2 -  2) =     13.48180  eV     1   --> A_1  G_1 D_1   
     e(  3 -  4) =     14.36587  eV     2   --> E    G_5 D_5   
     e(  5 -  5) =     14.37228  eV     1   --> B_2  G_4 D_2'  
     e(  6 -  6) =     17.77998  eV     1   --> A_1  G_1 D_1   
     e(  7 -  7) =     29.62374  eV     1   --> B_1  G_3 D_2   
     e(  8 -  8) =     30.60740  eV     1   -->   ?

 **************************************************************************

 **************************************************************************

                    xk=(   0.00000,   0.00000,   0.62500  )

     Band symmetry, C_4v (4mm)  point group:

     e(  1 -  1) =      0.06020  eV     1   --> A_1  G_1 D_1   
     e(  2 -  2) =     12.91437  eV     1   --> A_1  G_1 D_1   
     e(  3 -  3) =     14.20196  eV     1   --> B_2  G_4 D_2'  
     e(  4 -  5) =     14.21804  eV     2   --> E    G_5 D_5   
     e(  6 -  6) =     17.63354  eV     1   --> A_1  G_1 D_1   
     e(  7 -  7) =     29.84671  eV     1   --> B_1  G_3 D_2   
     e(  8 -  8) =     30.94347  eV     1   -->   ?

 **************************************************************************

 **************************************************************************

                    xk=(   0.00000,   0.00000,   0.65000  )

     Band symmetry, C_4v (4mm)  point group:

     e(  1 -  1) =      0.33958  eV     1   --> A_1  G_1 D_1   
     e(  2 -  2) =     12.35533  eV     1   --> A_1  G_1 D_1   
     e(  3 -  3) =     14.04239  eV     1   --> B_2  G_4 D_2'  
     e(  4 -  5) =     14.07974  eV     2   --> E    G_5 D_5   
     e(  6 -  6) =     17.49507  eV     1   --> A_1  G_1 D_1   
     e(  7 -  7) =     30.07428  eV     1   --> B_1  G_3 D_2   
     e(  8 -  8) =     31.26696  eV     1   -->   ?

 **************************************************************************

 **************************************************************************

                    xk=(   0.00000,   0.00000,   0.67500  )

     Band symmetry, C_4v (4mm)  point group:

     e(  1 -  1) =      0.62918  eV     1   --> A_1  G_1 D_1   
     e(  2 -  2) =     11.80501  eV     1   --> A_1  G_1 D_1   
     e(  3 -  3) =     13.89362  eV     1   --> B_2  G_4 D_2'  
     e(  4 -  5) =     13.95098  eV     2   --> E    G_5 D_5   
     e(  6 -  6) =     17.36490  eV     1   --> A_1  G_1 D_1   
     e(  7 -  7) =     30.30540  eV     1   --> B_1  G_3 D_2   
     e(  8 -  8) =     31.57798  eV     1   -->   ?

 **************************************************************************

 **************************************************************************

                    xk=(   0.00000,   0.00000,   0.70000  )

     Band symmetry, C_4v (4mm)  point group:

     e(  1 -  1) =      0.92885  eV     1   --> A_1  G_1 D_1   
     e(  2 -  2) =     11.26363  eV     1   --> A_1  G_1 D_1   
     e(  3 -  3) =     13.75573  eV     1   --> B_2  G_4 D_2'  
     e(  4 -  5) =     13.83179  eV     2   --> E    G_5 D_5   
     e(  6 -  6) =     17.24331  eV     1   --> A_1  G_1 D_1   
     e(  7 -  7) =     30.53880  eV     1   --> B_1  G_3 D_2   
     e(  8 -  8) =     31.87680  eV     1   -->   ?

 **************************************************************************

 **************************************************************************

                    xk=(   0.00000,   0.00000,   0.72500  )

     Band symmetry, C_4v (4mm)  point group:

     e(  1 -  1) =      1.23845  eV     1   --> A_1  G_1 D_1   
     e(  2 -  2) =     10.73143  eV     1   --> A_1  G_1 D_1   
     e(  3 -  3) =     13.62880  eV     1   --> B_2  G_4 D_2'  
     e(  4 -  5) =     13.72214  eV     2   --> E    G_5 D_5   
     e(  6 -  6) =     17.13056  eV     1   --> A_1  G_1 D_1   
     e(  7 -  7) =     30.77293  eV     1   --> B_1  G_3 D_2   
     e(  8 -  8) =     32.16304  eV     1   -->   ?

 **************************************************************************

 **************************************************************************

                    xk=(   0.00000,   0.00000,   0.75000  )

     Band symmetry, C_4v (4mm)  point group:

     e(  1 -  1) =      1.55775  eV     1   --> A_1  G_1 D_1   
     e(  2 -  2) =     10.20869  eV     1   --> A_1  G_1 D_1   
     e(  3 -  3) =     13.51275  eV     1   --> B_2  G_4 D_2'  
     e(  4 -  5) =     13.62204  eV     2   --> E    G_5 D_5   
     e(  6 -  6) =     17.02687  eV     1   --> A_1  G_1 D_1   
     e(  7 -  7) =     31.00583  eV     1   --> B_1  G_3 D_2   
     e(  8 -  8) =     32.43583  eV     1   -->   ?

 **************************************************************************

 **************************************************************************

                    xk=(   0.00000,   0.00000,   0.77500  )

     Band symmetry, C_4v (4mm)  point group:

     e(  1 -  1) =      1.88647  eV     1   --> A_1  G_1 D_1   
     e(  2 -  2) =      9.69576  eV     1   --> A_1  G_1 D_1   
     e(  3 -  3) =     13.40768  eV     1   --> B_2  G_4 D_2'  
     e(  4 -  5) =     13.53148  eV     2   --> E    G_5 D_5   
     e(  6 -  6) =     16.93246  eV     1   --> A_1  G_1 D_1   
     e(  7 -  7) =     31.23523  eV     1   --> B_1  G_3 D_2   
     e(  8 -  8) =     32.69437  eV     1   -->   ?

 **************************************************************************

 **************************************************************************

                    xk=(   0.00000,   0.00000,   0.80000  )

     Band symmetry, C_4v (4mm)  point group:

     e(  1 -  1) =      2.22423  eV     1   --> A_1  G_1 D_1   
     e(  2 -  2) =      9.19306  eV     1   --> A_1  G_1 D_1   
     e(  3 -  3) =     13.31360  eV     1   --> B_2  G_4 D_2'  
     e(  4 -  5) =     13.45046  eV     2   --> E    G_5 D_5   
     e(  6 -  6) =     16.84751  eV     1   --> A_1  G_1 D_1   
     e(  7 -  7) =     31.45837  eV     1   --> B_1  G_3 D_2   
     e(  8 -  8) =     32.93729  eV     1   -->   ?

 **************************************************************************

 **************************************************************************

                    xk=(   0.00000,   0.00000,   0.82500  )

     Band symmetry, C_4v (4mm)  point group:

     e(  1 -  1) =      2.57046  eV     1   --> A_1  G_1 D_1   
     e(  2 -  2) =      8.70123  eV     1   --> A_1  G_1 D_1   
     e(  3 -  3) =     13.23055  eV     1   --> B_2  G_4 D_2'  
     e(  4 -  5) =     13.37897  eV     2   --> E    G_5 D_5   
     e(  6 -  6) =     16.77217  eV     1   --> A_1  G_1 D_1   
     e(  7 -  7) =     31.67172  eV     1   --> B_1  G_3 D_2   
     e(  8 -  8) =     33.16261  eV     1   -->   ?

 **************************************************************************

 **************************************************************************

                    xk=(   0.00000,   0.00000,   0.85000  )

     Band symmetry, C_4v (4mm)  point group:

     e(  1 -  1) =      2.92426  eV     1   --> A_1  G_1 D_1   
     e(  2 -  2) =      8.22117  eV     1   --> A_1  G_1 D_1   
     e(  3 -  3) =     13.15853  eV     1   --> B_2  G_4 D_2'  
     e(  4 -  5) =     13.31703  eV     2   --> E    G_5 D_5   
     e(  6 -  6) =     16.70661  eV     1   --> A_1  G_1 D_1   
     e(  7 -  7) =     31.87184  eV     1   --> B_1  G_3 D_2   
     e(  8 -  8) =     33.36810  eV     1   -->   ?

 **************************************************************************

 **************************************************************************

                    xk=(   0.00000,   0.00000,   0.87500  )

     Band symmetry, C_4v (4mm)  point group:

     e(  1 -  1) =      3.28411  eV     1   --> A_1  G_1 D_1   
     e(  2 -  2) =      7.75444  eV     1   --> A_1  G_1 D_1   
     e(  3 -  3) =     13.09757  eV     1   --> B_2  G_4 D_2'  
     e(  4 -  5) =     13.26462  eV     2   --> E    G_5 D_5   
     e(  6 -  6) =     16.65093  eV     1   --> A_1  G_1 D_1   
     e(  7 -  7) =     32.05405  eV     1   --> B_1  G_3 D_2   
     e(  8 -  8) =     33.55075  eV     1   -->   ?

 **************************************************************************

 **************************************************************************

                    xk=(   0.00000,   0.00000,   0.90000  )

     Band symmetry, C_4v (4mm)  point group:

     e(  1 -  1) =      3.64721  eV     1   --> A_1  G_1 D_1   
     e(  2 -  2) =      7.30387  eV     1   --> A_1  G_1 D_1   
     e(  3 -  3) =     13.04767  eV     1   --> B_2  G_4 D_2'  
     e(  4 -  5) =     13.22175  eV     2   --> E    G_5 D_5   
     e(  6 -  6) =     16.60524  eV     1   --> A_1  G_1 D_1   
     e(  7 -  7) =     32.21339  eV     1   --> B_1  G_3 D_2   
     e(  8 -  8) =     33.70722  eV     1   -->   ?

 **************************************************************************

 **************************************************************************

                    xk=(   0.00000,   0.00000,   0.92500  )

     Band symmetry, C_4v (4mm)  point group:

     e(  1 -  1) =      4.00767  eV     1   --> A_1  G_1 D_1   
     e(  2 -  2) =      6.87536  eV     1   --> A_1  G_1 D_1   
     e(  3 -  3) =     13.00886  eV     1   --> B_2  G_4 D_2'  
     e(  4 -  5) =     13.18840  eV     2   --> E    G_5 D_5   
     e(  6 -  6) =     16.56962  eV     1   --> A_1  G_1 D_1   
     e(  7 -  7) =     32.34468  eV     1   --> B_1  G_3 D_2   
     e(  8 -  8) =     33.83395  eV     1   -->   ?

 **************************************************************************

 **************************************************************************

                    xk=(   0.00000,   0.00000,   0.95000  )

     Band symmetry, C_4v (4mm)  point group:

     e(  1 -  1) =      4.35132  eV     1   --> A_1  G_1 D_1   
     e(  2 -  2) =      6.48310  eV     1   --> A_1  G_1 D_1   
     e(  3 -  3) =     12.98112  eV     1   --> B_2  G_4 D_2'  
     e(  4 -  5) =     13.16458  eV     2   --> E    G_5 D_5   
     e(  6 -  6) =     16.54413  eV     1   --> A_1  G_1 D_1   
     e(  7 -  7) =     32.44291  eV     1   --> B_1  G_3 D_2   
     e(  8 -  8) =     33.92751  eV     1   -->   ?

 **************************************************************************

 **************************************************************************

                    xk=(   0.00000,   0.00000,   0.97500  )

     Band symmetry, C_4v (4mm)  point group:

     e(  1 -  1) =      4.63842  eV     1   --> A_1  G_1 D_1   
     e(  2 -  2) =      6.16682  eV     1   --> A_1  G_1 D_1   
     e(  3 -  3) =     12.96448  eV     1   --> B_2  G_4 D_2'  
     e(  4 -  5) =     13.15029  eV     2   --> E    G_5 D_5   
     e(  6 -  6) =     16.52882  eV     1   --> A_1  G_1 D_1   
     e(  7 -  7) =     32.50379  eV     1   --> B_1  G_3 D_2   
     e(  8 -  8) =     33.98497  eV     1   -->   ?

 **************************************************************************

 **************************************************************************

                    xk=(   0.00000,   0.00000,   1.00000  )

     point group D_4h(4/mmm)
     there are 10 classes
     the character table:

       E     2C4   C2    2C2'  2C2'' i     2S4   s_h   2s_v  2s_d 
A_1g   1.00  1.00  1.00  1.00  1.00  1.00  1.00  1.00  1.00  1.00
A_2g   1.00  1.00  1.00 -1.00 -1.00  1.00  1.00  1.00 -1.00 -1.00
B_1g   1.00 -1.00  1.00  1.00 -1.00  1.00 -1.00  1.00  1.00 -1.00
B_2g   1.00 -1.00  1.00 -1.00  1.00  1.00 -1.00  1.00 -1.00  1.00
E_g    2.00  0.00 -2.00  0.00  0.00  2.00  0.00 -2.00  0.00  0.00
A_1u   1.00  1.00  1.00  1.00  1.00 -1.00 -1.00 -1.00 -1.00 -1.00
A_2u   1.00  1.00  1.00 -1.00 -1.00 -1.00 -1.00 -1.00  1.00  1.00
B_1u   1.00 -1.00  1.00  1.00 -1.00 -1.00  1.00 -1.00 -1.00  1.00
B_2u   1.00 -1.00  1.00 -1.00  1.00 -1.00  1.00 -1.00  1.00 -1.00
E_u    2.00  0.00 -2.00  0.00  0.00 -2.00  0.00  2.00  0.00  0.00

     the symmetry operations in each class and the name of the first element:

     E        1
                                                                 
     2C4      7    8
                                                                 
     C2       2
                                                                 
     2C2'     3    4
                                                                 
     2C2''    5    6
                                                                 
     i        9
                                                                 
     2S4     15   16
                                                                 
     s_h     10
                                                                 
     2s_v    11   12
                                                                 
     2s_d    13   14
                                                                 

     Band symmetry, D_4h(4/mmm) point group:

     e(  1 -  1) =      4.76536  eV     1   --> A_2u X_4' M_4' 
     e(  2 -  2) =      6.03012  eV     1   --> A_1g X_1  M_1  
     e(  3 -  3) =     12.95889  eV     1   --> B_2g X_3  M_3  
     e(  4 -  5) =     13.14553  eV     2   --> E_u  X_5' M_5' 
     e(  6 -  6) =     16.52367  eV     1   --> A_1g X_1  M_1  
     e(  7 -  7) =     32.52423  eV     1   --> B_1g X_2  M_2  
     e(  8 -  8) =     34.00394  eV     1   -->   ?

 **************************************************************************

 **************************************************************************

                    xk=(  -0.01250,   0.00000,   1.00000  )

     point group C_2v (mm2) 
     there are  4 classes
     the character table:

       E     C2    s_v   s_v' 
A_1    1.00  1.00  1.00  1.00
A_2    1.00  1.00 -1.00 -1.00
B_1    1.00 -1.00  1.00 -1.00
B_2    1.00 -1.00 -1.00  1.00

     the symmetry operations in each class and the name of the first element:

     E        1
                                                                 
     C2       2
                                                                 
     s_v      4
                                                                 
     s_v'     3
                                                                 

     Band symmetry, C_2v (mm2)  point group:

     e(  1 -  1) =      4.76665  eV     1   --> B_1  D_3  S_3  
     e(  2 -  2) =      6.03149  eV     1   --> A_1  D_1  S_1  
     e(  3 -  3) =     12.82591  eV     1   --> B_2  D_4  S_4  
     e(  4 -  4) =     13.13412  eV     1   --> A_1  D_1  S_1  
     e(  5 -  5) =     13.28109  eV     1   --> B_2  D_4  S_4  
     e(  6 -  6) =     16.53714  eV     1   --> A_1  D_1  S_1  
     e(  7 -  7) =     32.51688  eV     1   --> A_1  D_1  S_1  
     e(  8 -  8) =     33.98599  eV     1   -->   ?

 **************************************************************************

 **************************************************************************

                    xk=(  -0.02500,   0.00000,   1.00000  )

     Band symmetry, C_2v (mm2)  point group:

     e(  1 -  1) =      4.77051  eV     1   --> B_1  D_3  S_3  
     e(  2 -  2) =      6.03560  eV     1   --> A_1  D_1  S_1  
     e(  3 -  3) =     12.63190  eV     1   --> B_2  D_4  S_4  
     e(  4 -  4) =     13.10043  eV     1   --> A_1  D_1  S_1  
     e(  5 -  5) =     13.48292  eV     1   --> B_2  D_4  S_4  
     e(  6 -  6) =     16.57703  eV     1   --> A_1  D_1  S_1  
     e(  7 -  7) =     32.49498  eV     1   --> A_1  D_1  S_1  
     e(  8 -  8) =     33.93267  eV     1   --> B_1  D_3  S_3  

 **************************************************************************

 **************************************************************************

                    xk=(  -0.03750,  -0.00000,   1.00000  )

     Band symmetry, C_2v (mm2)  point group:

     e(  1 -  1) =      4.77696  eV     1   --> B_1  D_3  S_3  
     e(  2 -  2) =      6.04246  eV     1   --> A_1  D_1  S_1  
     e(  3 -  3) =     12.43419  eV     1   --> B_2  D_4  S_4  
     e(  4 -  4) =     13.04598  eV     1   --> A_1  D_1  S_1  
     e(  5 -  5) =     13.69355  eV     1   --> B_2  D_4  S_4  
     e(  6 -  6) =     16.64180  eV     1   --> A_1  D_1  S_1  
     e(  7 -  7) =     32.45844  eV     1   --> A_1  D_1  S_1  
     e(  8 -  8) =     33.84543  eV     1   --> B_1  D_3  S_3  

 **************************************************************************

 **************************************************************************

                    xk=(  -0.05000,  -0.00000,   1.00000  )

     Band symmetry, C_2v (mm2)  point group:

     e(  1 -  1) =      4.78598  eV     1   --> B_1  D_3  S_3  
     e(  2 -  2) =      6.05205  eV     1   --> A_1  D_1  S_1  
     e(  3 -  3) =     12.23739  eV     1   --> B_2  D_4  S_4  
     e(  4 -  4) =     12.97294  eV     1   --> A_1  D_1  S_1  
     e(  5 -  5) =     13.90841  eV     1   --> B_2  D_4  S_4  
     e(  6 -  6) =     16.72923  eV     1   --> A_1  D_1  S_1  
     e(  7 -  7) =     32.40735  eV     1   --> A_1  D_1  S_1  
     e(  8 -  8) =     33.72632  eV     1   --> B_1  D_3  S_3  

 **************************************************************************

 **************************************************************************

                    xk=(  -0.06250,   0.00000,   1.00000  )

     Band symmetry, C_2v (mm2)  point group:

     e(  1 -  1) =      4.79757  eV     1   --> B_1  D_3  S_3  
     e(  2 -  2) =      6.06437  eV     1   --> A_1  D_1  S_1  
     e(  3 -  3) =     12.04250  eV     1   --> B_2  D_4  S_4  
     e(  4 -  4) =     12.88389  eV     1   --> A_1  D_1  S_1  
     e(  5 -  5) =     14.12652  eV     1   --> B_2  D_4  S_4  
     e(  6 -  6) =     16.83679  eV     1   --> A_1  D_1  S_1  
     e(  7 -  7) =     32.34200  eV     1   --> A_1  D_1  S_1  
     e(  8 -  8) =     33.57835  eV     1   --> B_1  D_3  S_3  

 **************************************************************************

 **************************************************************************

                    xk=(  -0.07500,   0.00000,   1.00000  )

     Band symmetry, C_2v (mm2)  point group:

     e(  1 -  1) =      4.81175  eV     1   --> B_1  D_3  S_3  
     e(  2 -  2) =      6.07942  eV     1   --> A_1  D_1  S_1  
     e(  3 -  3) =     11.84985  eV     1   --> B_2  D_4  S_4  
     e(  4 -  4) =     12.78139  eV     1   --> A_1  D_1  S_1  
     e(  5 -  5) =     14.34754  eV     1   --> B_2  D_4  S_4  
     e(  6 -  6) =     16.96190  eV     1   --> A_1  D_1  S_1  
     e(  7 -  7) =     32.26278  eV     1   --> A_1  D_1  S_1  
     e(  8 -  8) =     33.40468  eV     1   --> B_1  D_3  S_3  

 **************************************************************************

 **************************************************************************

                    xk=(  -0.08750,   0.00000,   1.00000  )

     Band symmetry, C_2v (mm2)  point group:

     e(  1 -  1) =      4.82849  eV     1   --> B_1  D_3  S_3  
     e(  2 -  2) =      6.09720  eV     1   --> A_1  D_1  S_1  
     e(  3 -  3) =     11.65961  eV     1   --> B_2  D_4  S_4  
     e(  4 -  4) =     12.66788  eV     1   --> A_1  D_1  S_1  
     e(  5 -  5) =     14.57131  eV     1   --> B_2  D_4  S_4  
     e(  6 -  6) =     17.10211  eV     1   --> A_1  D_1  S_1  
     e(  7 -  7) =     32.16974  eV     1   --> A_1  D_1  S_1  
     e(  8 -  8) =     33.20823  eV     1   --> B_1  D_3  S_3  

 **************************************************************************

 **************************************************************************

                    xk=(  -0.10000,  -0.00000,   1.00000  )

     Band symmetry, C_2v (mm2)  point group:

     e(  1 -  1) =      4.84783  eV     1   --> B_1  D_3  S_3  
     e(  2 -  2) =      6.11771  eV     1   --> A_1  D_1  S_1  
     e(  3 -  3) =     11.47186  eV     1   --> B_2  D_4  S_4  
     e(  4 -  4) =     12.54553  eV     1   --> A_1  D_1  S_1  
     e(  5 -  5) =     14.79778  eV     1   --> B_2  D_4  S_4  
     e(  6 -  6) =     17.25527  eV     1   --> A_1  D_1  S_1  
     e(  7 -  7) =     32.06340  eV     1   --> A_1  D_1  S_1  
     e(  8 -  8) =     32.99208  eV     1   --> B_1  D_3  S_3  

 **************************************************************************

 **************************************************************************

                    xk=(  -0.11250,  -0.00000,   1.00000  )

     Band symmetry, C_2v (mm2)  point group:

     e(  1 -  1) =      4.86973  eV     1   --> B_1  D_3  S_3  
     e(  2 -  2) =      6.14094  eV     1   --> A_1  D_1  S_1  
     e(  3 -  3) =     11.28661  eV     1   --> B_2  D_4  S_4  
     e(  4 -  4) =     12.41618  eV     1   --> A_1  D_1  S_1  
     e(  5 -  5) =     15.02685  eV     1   --> B_2  D_4  S_4  
     e(  6 -  6) =     17.41946  eV     1   --> A_1  D_1  S_1  
     e(  7 -  7) =     31.94421  eV     1   --> A_1  D_1  S_1  
     e(  8 -  8) =     32.75890  eV     1   --> B_1  D_3  S_3  

 **************************************************************************

 **************************************************************************

                    xk=(  -0.12500,   0.00000,   1.00000  )

     Band symmetry, C_2v (mm2)  point group:

     e(  1 -  1) =      4.89421  eV     1   --> B_1  D_3  S_3  
     e(  2 -  2) =      6.16687  eV     1   --> A_1  D_1  S_1  
     e(  3 -  3) =     11.10390  eV     1   --> B_2  D_4  S_4  
     e(  4 -  4) =     12.28140  eV     1   --> A_1  D_1  S_1  
     e(  5 -  5) =     15.25851  eV     1   --> B_2  D_4  S_4  
     e(  6 -  6) =     17.59314  eV     1   --> A_1  D_1  S_1  
     e(  7 -  7) =     31.81268  eV     1   --> A_1  D_1  S_1  
     e(  8 -  8) =     32.51115  eV     1   --> B_1  D_3  S_3  

 **************************************************************************

 **************************************************************************

                    xk=(  -0.13750,   0.00000,   1.00000  )

     Band symmetry, C_2v (mm2)  point group:

     e(  1 -  1) =      4.92127  eV     1   --> B_1  D_3  S_3  
     e(  2 -  2) =      6.19551  eV     1   --> A_1  D_1  S_1  
     e(  3 -  3) =     10.92376  eV     1   --> B_2  D_4  S_4  
     e(  4 -  4) =     12.14248  eV     1   --> A_1  D_1  S_1  
     e(  5 -  5) =     15.49274  eV     1   --> B_2  D_4  S_4  
     e(  6 -  6) =     17.77500  eV     1   --> A_1  D_1  S_1  
     e(  7 -  7) =     31.66936  eV     1   --> A_1  D_1  S_1  
     e(  8 -  8) =     32.25099  eV     1   --> B_1  D_3  S_3  

 **************************************************************************

 **************************************************************************

                    xk=(  -0.15000,   0.00000,   1.00000  )

     Band symmetry, C_2v (mm2)  point group:

     e(  1 -  1) =      4.95091  eV     1   --> B_1  D_3  S_3  
     e(  2 -  2) =      6.22684  eV     1   --> A_1  D_1  S_1  
     e(  3 -  3) =     10.74619  eV     1   --> B_2  D_4  S_4  
     e(  4 -  4) =     12.00047  eV     1   --> A_1  D_1  S_1  
     e(  5 -  5) =     15.72952  eV     1   --> B_2  D_4  S_4  
     e(  6 -  6) =     17.96397  eV     1   --> A_1  D_1  S_1  
     e(  7 -  7) =     31.51485  eV     1   --> A_1  D_1  S_1  
     e(  8 -  8) =     31.98029  eV     1   --> B_1  D_3  S_3  

 **************************************************************************

 **************************************************************************

                    xk=(  -0.16250,  -0.00000,   1.00000  )

     Band symmetry, C_2v (mm2)  point group:

     e(  1 -  1) =      4.98312  eV     1   --> B_1  D_3  S_3  
     e(  2 -  2) =      6.26087  eV     1   --> A_1  D_1  S_1  
     e(  3 -  3) =     10.57120  eV     1   --> B_2  D_4  S_4  
     e(  4 -  4) =     11.85627  eV     1   --> A_1  D_1  S_1  
     e(  5 -  5) =     15.96884  eV     1   --> B_2  D_4  S_4  
     e(  6 -  6) =     18.15913  eV     1   --> A_1  D_1  S_1  
     e(  7 -  7) =     31.34982  eV     1   --> A_1  D_1  S_1  
     e(  8 -  8) =     31.70068  eV     1   --> B_1  D_3  S_3  

 **************************************************************************

 **************************************************************************

                    xk=(  -0.17500,  -0.00000,   1.00000  )

     Band symmetry, C_2v (mm2)  point group:

     e(  1 -  1) =      5.01792  eV     1   --> B_1  D_3  S_3  
     e(  2 -  2) =      6.29757  eV     1   --> A_1  D_1  S_1  
     e(  3 -  3) =     10.39880  eV     1   --> B_2  D_4  S_4  
     e(  4 -  4) =     11.71058  eV     1   --> A_1  D_1  S_1  
     e(  5 -  5) =     16.21069  eV     1   --> B_2  D_4  S_4  
     e(  6 -  6) =     18.35975  eV     1   --> A_1  D_1  S_1  
     e(  7 -  7) =     31.17491  eV     1   --> A_1  D_1  S_1  
     e(  8 -  8) =     31.41356  eV     1   --> B_1  D_3  S_3  

 **************************************************************************

 **************************************************************************

                    xk=(  -0.18750,   0.00000,   1.00000  )

     Band symmetry, C_2v (mm2)  point group:

     e(  1 -  1) =      5.05529  eV     1   --> B_1  D_3  S_3  
     e(  2 -  2) =      6.33694  eV     1   --> A_1  D_1  S_1  
     e(  3 -  3) =     10.22898  eV     1   --> B_2  D_4  S_4  
     e(  4 -  4) =     11.56400  eV     1   --> A_1  D_1  S_1  
     e(  5 -  5) =     16.45503  eV     1   --> B_2  D_4  S_4  
     e(  6 -  6) =     18.56519  eV     1   --> A_1  D_1  S_1  
     e(  7 -  7) =     30.99072  eV     1   --> A_1  D_1  S_1  
     e(  8 -  8) =     31.12005  eV     1   --> B_1  D_3  S_3  

 **************************************************************************

 **************************************************************************

                    xk=(  -0.20000,   0.00000,   1.00000  )

     Band symmetry, C_2v (mm2)  point group:

     e(  1 -  1) =      5.09525  eV     1   --> B_1  D_3  S_3  
     e(  2 -  2) =      6.37897  eV     1   --> A_1  D_1  S_1  
     e(  3 -  3) =     10.06177  eV     1   --> B_2  D_4  S_4  
     e(  4 -  4) =     11.41703  eV     1   --> A_1  D_1  S_1  
     e(  5 -  5) =     16.70188  eV     1   --> B_2  D_4  S_4  
     e(  6 -  6) =     18.77495  eV     1   --> A_1  D_1  S_1  
     e(  7 -  7) =     30.79818  eV     1   --> A_1  D_1  S_1  
     e(  8 -  8) =     30.82133  eV     1   --> B_1  D_3  S_3  

 **************************************************************************

 **************************************************************************

                    xk=(  -0.21250,   0.00000,   1.00000  )

     Band symmetry, C_2v (mm2)  point group:

     e(  1 -  1) =      5.13779  eV     1   --> B_1  D_3  S_3  
     e(  2 -  2) =      6.42363  eV     1   --> A_1  D_1  S_1  
     e(  3 -  3) =      9.89716  eV     1   --> B_2  D_4  S_4  
     e(  4 -  4) =     11.27009  eV     1   --> A_1  D_1  S_1  
     e(  5 -  5) =     16.95122  eV     1   --> B_2  D_4  S_4  
     e(  6 -  6) =     18.98855  eV     1   --> A_1  D_1  S_1  
     e(  7 -  7) =     30.51821  eV     1   --> B_1  D_3  S_3  
     e(  8 -  8) =     30.59786  eV     1   --> A_1  D_1  S_1  

 **************************************************************************

 **************************************************************************

                    xk=(  -0.22500,  -0.00000,   1.00000  )

     Band symmetry, C_2v (mm2)  point group:

     e(  1 -  1) =      5.18291  eV     1   --> B_1  D_3  S_3  
     e(  2 -  2) =      6.47092  eV     1   --> A_1  D_1  S_1  
     e(  3 -  3) =      9.73515  eV     1   --> B_2  D_4  S_4  
     e(  4 -  4) =     11.12352  eV     1   --> A_1  D_1  S_1  
     e(  5 -  5) =     17.20303  eV     1   --> B_2  D_4  S_4  
     e(  6 -  6) =     19.20562  eV     1   --> A_1  D_1  S_1  
     e(  7 -  7) =     30.21147  eV     1   --> B_1  D_3  S_3  
     e(  8 -  8) =     30.39046  eV     1   --> A_1  D_1  S_1  

 **************************************************************************

 **************************************************************************

                    xk=(  -0.23750,  -0.00000,   1.00000  )

     Band symmetry, C_2v (mm2)  point group:

     e(  1 -  1) =      5.23061  eV     1   --> B_1  D_3  S_3  
     e(  2 -  2) =      6.52080  eV     1   --> A_1  D_1  S_1  
     e(  3 -  3) =      9.57574  eV     1   --> B_2  D_4  S_4  
     e(  4 -  4) =     10.97763  eV     1   --> A_1  D_1  S_1  
     e(  5 -  5) =     17.45729  eV     1   --> B_2  D_4  S_4  
     e(  6 -  6) =     19.42580  eV     1   --> A_1  D_1  S_1  
     e(  7 -  7) =     29.90178  eV     1   --> B_1  D_3  S_3  
     e(  8 -  8) =     30.17667  eV     1   --> A_1  D_1  S_1  

 **************************************************************************

 **************************************************************************

                    xk=(  -0.25000,   0.00000,   1.00000  )

     Band symmetry, C_2v (mm2)  point group:

     e(  1 -  1) =      5.28089  eV     1   --> B_1  D_3  S_3  
     e(  2 -  2) =      6.57327  eV     1   --> A_1  D_1  S_1  
     e(  3 -  3) =      9.41893  eV     1   --> B_2  D_4  S_4  
     e(  4 -  4) =     10.83266  eV     1   --> A_1  D_1  S_1  
     e(  5 -  5) =     17.71398  eV     1   --> B_2  D_4  S_4  
     e(  6 -  6) =     19.64878  eV     1   --> A_1  D_1  S_1  
     e(  7 -  7) =     29.58962  eV     1   --> B_1  D_3  S_3  
     e(  8 -  8) =     29.95714  eV     1   --> A_1  D_1  S_1  

 **************************************************************************

 **************************************************************************

                    xk=(  -0.26250,   0.00000,   1.00000  )

     Band symmetry, C_2v (mm2)  point group:

     e(  1 -  1) =      5.33376  eV     1   --> B_1  D_3  S_3  
     e(  2 -  2) =      6.62829  eV     1   --> A_1  D_1  S_1  
     e(  3 -  3) =      9.26473  eV     1   --> B_2  D_4  S_4  
     e(  4 -  4) =     10.68886  eV     1   --> A_1  D_1  S_1  
     e(  5 -  5) =     17.97312  eV     1   --> B_2  D_4  S_4  
     e(  6 -  6) =     19.87426  eV     1   --> A_1  D_1  S_1  
     e(  7 -  7) =     29.27567  eV     1   --> B_1  D_3  S_3  
     e(  8 -  8) =     29.73254  eV     1   --> A_1  D_1  S_1  

 **************************************************************************

 **************************************************************************

                    xk=(  -0.27500,   0.00000,   1.00000  )

     Band symmetry, C_2v (mm2)  point group:

     e(  1 -  1) =      5.38921  eV     1   --> B_1  D_3  S_3  
     e(  2 -  2) =      6.68583  eV     1   --> A_1  D_1  S_1  
     e(  3 -  3) =      9.11314  eV     1   --> B_2  D_4  S_4  
     e(  4 -  4) =     10.54641  eV     1   --> A_1  D_1  S_1  
     e(  5 -  5) =     18.23467  eV     1   --> B_2  D_4  S_4  
     e(  6 -  6) =     20.10197  eV     1   --> A_1  D_1  S_1  
     e(  7 -  7) =     28.96029  eV     1   --> B_1  D_3  S_3  
     e(  8 -  8) =     29.50351  eV     1   --> A_1  D_1  S_1  

 **************************************************************************

 **************************************************************************

                    xk=(  -0.28750,  -0.00000,   1.00000  )

     Band symmetry, C_2v (mm2)  point group:

     e(  1 -  1) =      5.44724  eV     1   --> B_1  D_3  S_3  
     e(  2 -  2) =      6.74586  eV     1   --> A_1  D_1  S_1  
     e(  3 -  3) =      8.96414  eV     1   --> B_2  D_4  S_4  
     e(  4 -  4) =     10.40549  eV     1   --> A_1  D_1  S_1  
     e(  5 -  5) =     18.49857  eV     1   --> B_2  D_4  S_4  
     e(  6 -  6) =     20.33162  eV     1   --> A_1  D_1  S_1  
     e(  7 -  7) =     28.64385  eV     1   --> B_1  D_3  S_3  
     e(  8 -  8) =     29.27064  eV     1   --> A_1  D_1  S_1  

 **************************************************************************

 **************************************************************************

                    xk=(  -0.30000,   0.00000,   1.00000  )

     Band symmetry, C_2v (mm2)  point group:

     e(  1 -  1) =      5.50786  eV     1   --> B_1  D_3  S_3  
     e(  2 -  2) =      6.80832  eV     1   --> A_1  D_1  S_1  
     e(  3 -  3) =      8.81776  eV     1   --> B_2  D_4  S_4  
     e(  4 -  4) =     10.26629  eV     1   --> A_1  D_1  S_1  
     e(  5 -  5) =     18.76490  eV     1   --> B_2  D_4  S_4  
     e(  6 -  6) =     20.56296  eV     1   --> A_1  D_1  S_1  
     e(  7 -  7) =     28.32673  eV     1   --> B_1  D_3  S_3  
     e(  8 -  8) =     29.03458  eV     1   --> A_1  D_1  S_1  

 **************************************************************************

 **************************************************************************

                    xk=(  -0.31250,   0.00000,   1.00000  )

     Band symmetry, C_2v (mm2)  point group:

     e(  1 -  1) =      5.57107  eV     1   --> B_1  D_3  S_3  
     e(  2 -  2) =      6.87318  eV     1   --> A_1  D_1  S_1  
     e(  3 -  3) =      8.67399  eV     1   --> B_2  D_4  S_4  
     e(  4 -  4) =     10.12895  eV     1   --> A_1  D_1  S_1  
     e(  5 -  5) =     19.03358  eV     1   --> B_2  D_4  S_4  
     e(  6 -  6) =     20.79569  eV     1   --> A_1  D_1  S_1  
     e(  7 -  7) =     28.00920  eV     1   --> B_1  D_3  S_3  
     e(  8 -  8) =     28.79591  eV     1   --> A_1  D_1  S_1  

 **************************************************************************

 **************************************************************************

                    xk=(  -0.32500,   0.00000,   1.00000  )

     Band symmetry, C_2v (mm2)  point group:

     e(  1 -  1) =      5.63687  eV     1   --> B_1  D_3  S_3  
     e(  2 -  2) =      6.94036  eV     1   --> A_1  D_1  S_1  
     e(  3 -  3) =      8.53283  eV     1   --> B_2  D_4  S_4  
     e(  4 -  4) =      9.99363  eV     1   --> A_1  D_1  S_1  
     e(  5 -  5) =     19.30463  eV     1   --> B_2  D_4  S_4  
     e(  6 -  6) =     21.02950  eV     1   --> A_1  D_1  S_1  
     e(  7 -  7) =     27.69156  eV     1   --> B_1  D_3  S_3  
     e(  8 -  8) =     28.55546  eV     1   --> A_1  D_1  S_1  

 **************************************************************************

 **************************************************************************

                    xk=(  -0.33750,   0.00000,   1.00000  )

     Band symmetry, C_2v (mm2)  point group:

     e(  1 -  1) =      5.70525  eV     1   --> B_1  D_3  S_3  
     e(  2 -  2) =      7.00978  eV     1   --> A_1  D_1  S_1  
     e(  3 -  3) =      8.39427  eV     1   --> B_2  D_4  S_4  
     e(  4 -  4) =      9.86050  eV     1   --> A_1  D_1  S_1  
     e(  5 -  5) =     19.57798  eV     1   --> B_2  D_4  S_4  
     e(  6 -  6) =     21.26399  eV     1   --> A_1  D_1  S_1  
     e(  7 -  7) =     27.37401  eV     1   --> B_1  D_3  S_3  
     e(  8 -  8) =     28.31346  eV     1   --> A_1  D_1  S_1  

 **************************************************************************

 **************************************************************************

                    xk=(  -0.35000,  -0.00000,   1.00000  )

     Band symmetry, C_2v (mm2)  point group:

     e(  1 -  1) =      5.77622  eV     1   --> B_1  D_3  S_3  
     e(  2 -  2) =      7.08133  eV     1   --> A_1  D_1  S_1  
     e(  3 -  3) =      8.25832  eV     1   --> B_2  D_4  S_4  
     e(  4 -  4) =      9.72973  eV     1   --> A_1  D_1  S_1  
     e(  5 -  5) =     19.85363  eV     1   --> B_2  D_4  S_4  
     e(  6 -  6) =     21.49875  eV     1   --> A_1  D_1  S_1  
     e(  7 -  7) =     27.05679  eV     1   --> B_1  D_3  S_3  
     e(  8 -  8) =     28.07079  eV     1   --> A_1  D_1  S_1  

 **************************************************************************

 **************************************************************************

                    xk=(  -0.36250,   0.00000,   1.00000  )

     Band symmetry, C_2v (mm2)  point group:

     e(  1 -  1) =      5.84978  eV     1   --> B_1  D_3  S_3  
     e(  2 -  2) =      7.15488  eV     1   --> A_1  D_1  S_1  
     e(  3 -  3) =      8.12498  eV     1   --> B_2  D_4  S_4  
     e(  4 -  4) =      9.60151  eV     1   --> A_1  D_1  S_1  
     e(  5 -  5) =     20.13155  eV     1   --> B_2  D_4  S_4  
     e(  6 -  6) =     21.73326  eV     1   --> A_1  D_1  S_1  
     e(  7 -  7) =     26.74008  eV     1   --> B_1  D_3  S_3  
     e(  8 -  8) =     27.82821  eV     1   --> A_1  D_1  S_1  

 **************************************************************************

 **************************************************************************

                    xk=(  -0.37500,   0.00000,   1.00000  )

     Band symmetry, C_2v (mm2)  point group:

     e(  1 -  1) =      5.92593  eV     1   --> B_1  D_3  S_3  
     e(  2 -  2) =      7.23024  eV     1   --> A_1  D_1  S_1  
     e(  3 -  3) =      7.99423  eV     1   --> B_2  D_4  S_4  
     e(  4 -  4) =      9.47608  eV     1   --> A_1  D_1  S_1  
     e(  5 -  5) =     20.41170  eV     1   --> B_2  D_4  S_4  
     e(  6 -  6) =     21.96686  eV     1   --> A_1  D_1  S_1  
     e(  7 -  7) =     26.42404  eV     1   --> B_1  D_3  S_3  
     e(  8 -  8) =     27.58656  eV     1   --> A_1  D_1  S_1  

 **************************************************************************

 **************************************************************************

                    xk=(  -0.38750,   0.00000,   1.00000  )

     Band symmetry, C_2v (mm2)  point group:

     e(  1 -  1) =      6.00467  eV     1   --> B_1  D_3  S_3  
     e(  2 -  2) =      7.30717  eV     1   --> A_1  D_1  S_1  
     e(  3 -  3) =      7.86610  eV     1   --> B_2  D_4  S_4  
     e(  4 -  4) =      9.35374  eV     1   --> A_1  D_1  S_1  
     e(  5 -  5) =     20.69410  eV     1   --> B_2  D_4  S_4  
     e(  6 -  6) =     22.19870  eV     1   --> A_1  D_1  S_1  
     e(  7 -  7) =     26.10886  eV     1   --> B_1  D_3  S_3  
     e(  8 -  8) =     27.34692  eV     1   --> A_1  D_1  S_1  

 **************************************************************************

 **************************************************************************

                    xk=(  -0.40000,   0.00000,   1.00000  )

     Band symmetry, C_2v (mm2)  point group:

     e(  1 -  1) =      6.08601  eV     1   --> B_1  D_3  S_3  
     e(  2 -  2) =      7.38531  eV     1   --> A_1  D_1  S_1  
     e(  3 -  3) =      7.74056  eV     1   --> B_2  D_4  S_4  
     e(  4 -  4) =      9.23486  eV     1   --> A_1  D_1  S_1  
     e(  5 -  5) =     20.97863  eV     1   --> B_2  D_4  S_4  
     e(  6 -  6) =     22.42759  eV     1   --> A_1  D_1  S_1  
     e(  7 -  7) =     25.79467  eV     1   --> B_1  D_3  S_3  
     e(  8 -  8) =     27.11059  eV     1   --> A_1  D_1  S_1  

 **************************************************************************

 **************************************************************************

                    xk=(  -0.41250,  -0.00000,   1.00000  )

     Band symmetry, C_2v (mm2)  point group:

     e(  1 -  1) =      6.16994  eV     1   --> B_1  D_3  S_3  
     e(  2 -  2) =      7.46417  eV     1   --> A_1  D_1  S_1  
     e(  3 -  3) =      7.61765  eV     1   --> B_2  D_4  S_4  
     e(  4 -  4) =      9.12000  eV     1   --> A_1  D_1  S_1  
     e(  5 -  5) =     21.26538  eV     1   --> B_2  D_4  S_4  
     e(  6 -  6) =     22.65198  eV     1   --> A_1  D_1  S_1  
     e(  7 -  7) =     25.48169  eV     1   --> B_1  D_3  S_3  
     e(  8 -  8) =     26.87935  eV     1   --> A_1  D_1  S_1  

 **************************************************************************

 **************************************************************************

                    xk=(  -0.42500,   0.00000,   1.00000  )

     Band symmetry, C_2v (mm2)  point group:

     e(  1 -  1) =      6.25646  eV     1   --> B_1  D_3  S_3  
     e(  2 -  2) =      7.49733  eV     1   --> B_2  D_4  S_4  
     e(  3 -  3) =      7.54298  eV     1   --> A_1  D_1  S_1  
     e(  4 -  4) =      9.00993  eV     1   --> A_1  D_1  S_1  
     e(  5 -  5) =     21.55426  eV     1   --> B_2  D_4  S_4  
     e(  6 -  6) =     22.86956  eV     1   --> A_1  D_1  S_1  
     e(  7 -  7) =     25.16984  eV     1   --> B_1  D_3  S_3  
     e(  8 -  8) =     26.65557  eV     1   --> A_1  D_1  S_1  

 **************************************************************************

 **************************************************************************

                    xk=(  -0.43750,   0.00000,   1.00000  )

     Band symmetry, C_2v (mm2)  point group:

     e(  1 -  1) =      6.34558  eV     1   --> B_1  D_3  S_3  
     e(  2 -  2) =      7.37962  eV     1   --> B_2  D_4  S_4  
     e(  3 -  3) =      7.62058  eV     1   --> A_1  D_1  S_1  
     e(  4 -  4) =      8.90585  eV     1   --> A_1  D_1  S_1  
     e(  5 -  5) =     21.84522  eV     1   --> B_2  D_4  S_4  
     e(  6 -  6) =     23.07698  eV     1   --> A_1  D_1  S_1  
     e(  7 -  7) =     24.85932  eV     1   --> B_1  D_3  S_3  
     e(  8 -  8) =     26.44273  eV     1   --> A_1  D_1  S_1  

 **************************************************************************

 **************************************************************************

                    xk=(  -0.45000,   0.00000,   1.00000  )

     Band symmetry, C_2v (mm2)  point group:

     e(  1 -  1) =      6.43729  eV     1   --> B_1  D_3  S_3  
     e(  2 -  2) =      7.26450  eV     1   --> B_2  D_4  S_4  
     e(  3 -  3) =      7.69509  eV     1   --> A_1  D_1  S_1  
     e(  4 -  4) =      8.80963  eV     1   --> A_1  D_1  S_1  
     e(  5 -  5) =     22.13817  eV     1   --> B_2  D_4  S_4  
     e(  6 -  6) =     23.26921  eV     1   --> A_1  D_1  S_1  
     e(  7 -  7) =     24.55023  eV     1   --> B_1  D_3  S_3  
     e(  8 -  8) =     26.24575  eV     1   --> A_1  D_1  S_1  

 **************************************************************************

 **************************************************************************

                    xk=(  -0.46250,   0.00000,   1.00000  )

     Band symmetry, C_2v (mm2)  point group:

     e(  1 -  1) =      6.53160  eV     1   --> B_1  D_3  S_3  
     e(  2 -  2) =      7.15200  eV     1   --> B_2  D_4  S_4  
     e(  3 -  3) =      7.76352  eV     1   --> A_1  D_1  S_1  
     e(  4 -  4) =      8.72431  eV     1   --> A_1  D_1  S_1  
     e(  5 -  5) =     22.43319  eV     1   --> B_2  D_4  S_4  
     e(  6 -  6) =     23.43896  eV     1   --> A_1  D_1  S_1  
     e(  7 -  7) =     24.24266  eV     1   --> B_1  D_3  S_3  
     e(  8 -  8) =     26.07238  eV     1   --> A_1  D_1  S_1  

 **************************************************************************

 **************************************************************************

                    xk=(  -0.47500,  -0.00000,   1.00000  )

     Band symmetry, C_2v (mm2)  point group:

     e(  1 -  1) =      6.62850  eV     1   --> B_1  D_3  S_3  
     e(  2 -  2) =      7.04210  eV     1   --> B_2  D_4  S_4  
     e(  3 -  3) =      7.82105  eV     1   --> A_1  D_1  S_1  
     e(  4 -  4) =      8.65471  eV     1   --> A_1  D_1  S_1  
     e(  5 -  5) =     22.73017  eV     1   --> B_2  D_4  S_4  
     e(  6 -  6) =     23.57567  eV     1   --> A_1  D_1  S_1  
     e(  7 -  7) =     23.93668  eV     1   --> B_1  D_3  S_3  
     e(  8 -  8) =     25.93304  eV     1   --> A_1  D_1  S_1  

 **************************************************************************

 **************************************************************************

                    xk=(  -0.48750,   0.00000,   1.00000  )

     Band symmetry, C_2v (mm2)  point group:

     e(  1 -  1) =      6.72800  eV     1   --> B_1  D_3  S_3  
     e(  2 -  2) =      6.93480  eV     1   --> B_2  D_4  S_4  
     e(  3 -  3) =      7.86075  eV     1   --> A_1  D_1  S_1  
     e(  4 -  4) =      8.60777  eV     1   --> A_1  D_1  S_1  
     e(  5 -  5) =     23.02907  eV     1   --> B_2  D_4  S_4  
     e(  6 -  6) =     23.63238  eV     1   --> B_1  D_3  S_3  
     e(  7 -  7) =     23.66620  eV     1   --> A_1  D_1  S_1  
     e(  8 -  8) =     25.84092  eV     1   --> A_1  D_1  S_1  

 **************************************************************************

 **************************************************************************

                    xk=(  -0.50000,   0.00000,   1.00000  )

     point group D_2d (-42m)
     there are  5 classes
     the character table:

       E     2S4   C2    2C2'  2s_d 
A_1    1.00  1.00  1.00  1.00  1.00
A_2    1.00  1.00  1.00 -1.00 -1.00
B_1    1.00 -1.00  1.00  1.00 -1.00
B_2    1.00 -1.00  1.00 -1.00  1.00
E      2.00  0.00 -2.00  0.00  0.00

     the symmetry operations in each class and the name of the first element:

     E        1
                                                                 
     2S4      7    8
                                                                 
     C2       2
                                                                 
     2C2'     3    4
                                                                 
     2s_d     5    6
                                                                 

     Band symmetry, D_2d (-42m) point group:

     e(  1 -  2) =      6.83010  eV     2   --> E    X_5  W_3  
     e(  3 -  3) =      7.87515  eV     1   --> B_2  X_3  W_2  
     e(  4 -  4) =      8.59095  eV     1   --> A_1  X_1  W_1  
     e(  5 -  6) =     23.32982  eV     2   --> E    X_5  W_3  
     e(  7 -  7) =     23.69815  eV     1   --> B_2  X_3  W_2  
     e(  8 -  8) =     25.80843  eV     1   --> A_1  X_1  W_1  

 **************************************************************************

 **************************************************************************

                    xk=(  -0.50000,  -0.01250,   0.98750  )

     point group C_2  (2)   
     there are  2 classes
     the character table:

       E     C2   
A      1.00  1.00
B      1.00 -1.00

     the symmetry operations in each class and the name of the first element:

     E        1
                                                                 
     C2       2
                                                                 

     Band symmetry, C_2  (2)    point group:

     e(  1 -  1) =      6.79196  eV     1   --> B              
     e(  2 -  2) =      6.80687  eV     1   --> A              
     e(  3 -  3) =      7.91852  eV     1   --> B              
     e(  4 -  4) =      8.61897  eV     1   --> A              
     e(  5 -  5) =     23.25759  eV     1   --> B              
     e(  6 -  6) =     23.31639  eV     1   --> A              
     e(  7 -  7) =     23.77475  eV     1   --> B              
     e(  8 -  8) =     25.82446  eV     1   --> A              

 **************************************************************************

 **************************************************************************

                    xk=(  -0.50000,  -0.02500,   0.97500  )

     Band symmetry, C_2  (2)    point group:

     e(  1 -  1) =      6.69223  eV     1   --> B              
     e(  2 -  2) =      6.74119  eV     1   --> A              
     e(  3 -  3) =      8.03394  eV     1   --> B              
     e(  4 -  4) =      8.69897  eV     1   --> A              
     e(  5 -  5) =     23.11567  eV     1   --> B              
     e(  6 -  6) =     23.27715  eV     1   --> A              
     e(  7 -  7) =     23.92977  eV     1   --> B              
     e(  8 -  8) =     25.87144  eV     1   --> A              

 **************************************************************************

 **************************************************************************

                    xk=(  -0.50000,  -0.03750,   0.96250  )

     Band symmetry, C_2  (2)    point group:

     e(  1 -  1) =      6.55684  eV     1   --> B              
     e(  2 -  2) =      6.64256  eV     1   --> A              
     e(  3 -  3) =      8.19549  eV     1   --> B              
     e(  4 -  4) =      8.82148  eV     1   --> A              
     e(  5 -  5) =     22.95887  eV     1   --> B              
     e(  6 -  6) =     23.21497  eV     1   --> A              
     e(  7 -  7) =     24.10838  eV     1   --> B              
     e(  8 -  8) =     25.94640  eV     1   --> A              

 **************************************************************************

 **************************************************************************

                    xk=(  -0.50000,  -0.05000,   0.95000  )

     Band symmetry, C_2  (2)    point group:

     e(  1 -  1) =      6.40401  eV     1   --> B              
     e(  2 -  2) =      6.52119  eV     1   --> A              
     e(  3 -  3) =      8.38493  eV     1   --> B              
     e(  4 -  4) =      8.97628  eV     1   --> A              
     e(  5 -  5) =     22.80007  eV     1   --> B              
     e(  6 -  6) =     23.13372  eV     1   --> A              
     e(  7 -  7) =     24.29771  eV     1   --> B              
     e(  8 -  8) =     26.04526  eV     1   --> A              

 **************************************************************************

 **************************************************************************

                    xk=(  -0.50000,  -0.06250,   0.93750  )

     Band symmetry, C_2  (2)    point group:

     e(  1 -  1) =      6.24363  eV     1   --> B              
     e(  2 -  2) =      6.38538  eV     1   --> A              
     e(  3 -  3) =      8.59237  eV     1   --> B              
     e(  4 -  4) =      9.15505  eV     1   --> A              
     e(  5 -  5) =     22.64288  eV     1   --> B              
     e(  6 -  6) =     23.03749  eV     1   --> A              
     e(  7 -  7) =     24.49406  eV     1   --> B              
     e(  8 -  8) =     26.16364  eV     1   --> A              

 **************************************************************************

 **************************************************************************

                    xk=(  -0.50000,  -0.07500,   0.92500  )

     Band symmetry, C_2  (2)    point group:

     e(  1 -  1) =      6.08086  eV     1   --> B              
     e(  2 -  2) =      6.24104  eV     1   --> A              
     e(  3 -  3) =      8.81263  eV     1   --> B              
     e(  4 -  4) =      9.35185  eV     1   --> A              
     e(  5 -  5) =     22.48864  eV     1   --> B              
     e(  6 -  6) =     22.93002  eV     1   --> A              
     e(  7 -  7) =     24.69611  eV     1   --> B              
     e(  8 -  8) =     26.29741  eV     1   --> A              

 **************************************************************************

 **************************************************************************

                    xk=(  -0.50000,  -0.08750,   0.91250  )

     Band symmetry, C_2  (2)    point group:

     e(  1 -  1) =      5.91852  eV     1   --> B              
     e(  2 -  2) =      6.09219  eV     1   --> A              
     e(  3 -  3) =      9.04288  eV     1   --> B              
     e(  4 -  4) =      9.56266  eV     1   --> A              
     e(  5 -  5) =     22.33799  eV     1   --> B              
     e(  6 -  6) =     22.81448  eV     1   --> A              
     e(  7 -  7) =     24.90317  eV     1   --> B              
     e(  8 -  8) =     26.44284  eV     1   --> A              

 **************************************************************************

 **************************************************************************

                    xk=(  -0.50000,  -0.10000,   0.90000  )

     Band symmetry, C_2  (2)    point group:

     e(  1 -  1) =      5.75822  eV     1   --> B              
     e(  2 -  2) =      5.94156  eV     1   --> A              
     e(  3 -  3) =      9.28152  eV     1   --> B              
     e(  4 -  4) =      9.78474  eV     1   --> A              
     e(  5 -  5) =     22.19127  eV     1   --> B              
     e(  6 -  6) =     22.69350  eV     1   --> A              
     e(  7 -  7) =     25.11488  eV     1   --> B              
     e(  8 -  8) =     26.59670  eV     1   --> A              

 **************************************************************************

 **************************************************************************

                    xk=(  -0.50000,  -0.11250,   0.88750  )

     Band symmetry, C_2  (2)    point group:

     e(  1 -  1) =      5.60095  eV     1   --> B              
     e(  2 -  2) =      5.79097  eV     1   --> A              
     e(  3 -  3) =      9.52749  eV     1   --> B              
     e(  4 -  4) =     10.01621  eV     1   --> A              
     e(  5 -  5) =     22.04860  eV     1   --> B              
     e(  6 -  6) =     22.56899  eV     1   --> A              
     e(  7 -  7) =     25.33095  eV     1   --> B              
     e(  8 -  8) =     26.75591  eV     1   --> A              

 **************************************************************************

 **************************************************************************

                    xk=(  -0.50000,  -0.12500,   0.87500  )

     Band symmetry, C_2  (2)    point group:

     e(  1 -  1) =      5.44732  eV     1   --> B              
     e(  2 -  2) =      5.64173  eV     1   --> A              
     e(  3 -  3) =      9.78019  eV     1   --> B              
     e(  4 -  4) =     10.25575  eV     1   --> A              
     e(  5 -  5) =     21.91011  eV     1   --> B              
     e(  6 -  6) =     22.44260  eV     1   --> A              
     e(  7 -  7) =     25.55126  eV     1   --> B              
     e(  8 -  8) =     26.91769  eV     1   --> A              

 **************************************************************************

 **************************************************************************

                    xk=(  -0.50000,  -0.13750,   0.86250  )

     Band symmetry, C_2  (2)    point group:

     e(  1 -  1) =      5.29776  eV     1   --> B              
     e(  2 -  2) =      5.49475  eV     1   --> A              
     e(  3 -  3) =     10.03915  eV     1   --> B              
     e(  4 -  4) =     10.50243  eV     1   --> A              
     e(  5 -  5) =     21.77587  eV     1   --> B              
     e(  6 -  6) =     22.31556  eV     1   --> A              
     e(  7 -  7) =     25.77562  eV     1   --> B              
     e(  8 -  8) =     27.07910  eV     1   --> A              

 **************************************************************************

 **************************************************************************

                    xk=(  -0.50000,  -0.15000,   0.85000  )

     Band symmetry, C_2  (2)    point group:

     e(  1 -  1) =      5.15256  eV     1   --> B              
     e(  2 -  2) =      5.35068  eV     1   --> A              
     e(  3 -  3) =     10.30407  eV     1   --> B              
     e(  4 -  4) =     10.75551  eV     1   --> A              
     e(  5 -  5) =     21.64590  eV     1   --> B              
     e(  6 -  6) =     22.18890  eV     1   --> A              
     e(  7 -  7) =     26.00388  eV     1   --> B              
     e(  8 -  8) =     27.23681  eV     1   --> A              

 **************************************************************************

 **************************************************************************

                    xk=(  -0.50000,  -0.16250,   0.83750  )

     Band symmetry, C_2  (2)    point group:

     e(  1 -  1) =      5.01190  eV     1   --> B              
     e(  2 -  2) =      5.21003  eV     1   --> A              
     e(  3 -  3) =     10.57471  eV     1   --> B              
     e(  4 -  4) =     11.01448  eV     1   --> A              
     e(  5 -  5) =     21.52025  eV     1   --> B              
     e(  6 -  6) =     22.06326  eV     1   --> A              
     e(  7 -  7) =     26.23598  eV     1   --> B              
     e(  8 -  8) =     27.38687  eV     1   --> A              

 **************************************************************************

 **************************************************************************

                    xk=(  -0.50000,  -0.17500,   0.82500  )

     Band symmetry, C_2  (2)    point group:

     e(  1 -  1) =      4.87594  eV     1   --> B              
     e(  2 -  2) =      5.07317  eV     1   --> A              
     e(  3 -  3) =     10.85086  eV     1   --> B              
     e(  4 -  4) =     11.27890  eV     1   --> A              
     e(  5 -  5) =     21.39889  eV     1   --> B              
     e(  6 -  6) =     21.93926  eV     1   --> A              
     e(  7 -  7) =     26.47157  eV     1   --> B              
     e(  8 -  8) =     27.52411  eV     1   --> A              

 **************************************************************************

 **************************************************************************

                    xk=(  -0.50000,  -0.18750,   0.81250  )

     Band symmetry, C_2  (2)    point group:

     e(  1 -  1) =      4.74479  eV     1   --> B              
     e(  2 -  2) =      4.94039  eV     1   --> A              
     e(  3 -  3) =     11.13238  eV     1   --> B              
     e(  4 -  4) =     11.54841  eV     1   --> A              
     e(  5 -  5) =     21.28184  eV     1   --> B              
     e(  6 -  6) =     21.81741  eV     1   --> A              
     e(  7 -  7) =     26.71064  eV     1   --> B              
     e(  8 -  8) =     27.64173  eV     1   --> A              

 **************************************************************************

 **************************************************************************

                    xk=(  -0.50000,  -0.20000,   0.80000  )

     Band symmetry, C_2  (2)    point group:

     e(  1 -  1) =      4.61853  eV     1   --> B              
     e(  2 -  2) =      4.81193  eV     1   --> A              
     e(  3 -  3) =     11.41913  eV     1   --> B              
     e(  4 -  4) =     11.82271  eV     1   --> A              
     e(  5 -  5) =     21.16908  eV     1   --> B              
     e(  6 -  6) =     21.69804  eV     1   --> A              
     e(  7 -  7) =     26.95293  eV     1   --> B              
     e(  8 -  8) =     27.73058  eV     1   --> A              

 **************************************************************************

 **************************************************************************

                    xk=(  -0.50000,  -0.21250,   0.78750  )

     Band symmetry, C_2  (2)    point group:

     e(  1 -  1) =      4.49722  eV     1   --> B              
     e(  2 -  2) =      4.68796  eV     1   --> A              
     e(  3 -  3) =     11.71098  eV     1   --> B              
     e(  4 -  4) =     12.10155  eV     1   --> A              
     e(  5 -  5) =     21.06062  eV     1   --> B              
     e(  6 -  6) =     21.58148  eV     1   --> A              
     e(  7 -  7) =     27.19827  eV     1   --> B              
     e(  8 -  8) =     27.77927  eV     1   --> A              

 **************************************************************************

 **************************************************************************

                    xk=(  -0.50000,  -0.22500,   0.77500  )

     Band symmetry, C_2  (2)    point group:

     e(  1 -  1) =      4.38092  eV     1   --> B              
     e(  2 -  2) =      4.56865  eV     1   --> A              
     e(  3 -  3) =     12.00779  eV     1   --> B              
     e(  4 -  4) =     12.38469  eV     1   --> A              
     e(  5 -  5) =     20.95637  eV     1   --> B              
[...]

 **************************************************************************

                    xk=(  -0.33750,  -0.33750,   0.33750  )

     Band symmetry, C_3v (3m)   point group:

     e(  1 -  1) =     -0.36915  eV     1   --> A_1  L_1       
     e(  2 -  2) =      7.99786  eV     1   --> A_1  L_1       
     e(  3 -  4) =     18.26047  eV     2   --> E    L_3       
     e(  5 -  6) =     20.77027  eV     2   --> E    L_3       
     e(  7 -  7) =     21.89241  eV     1   --> A_1  L_1       
     e(  8 -  8) =     24.82539  eV     1   --> A_1  L_1       

 **************************************************************************

 **************************************************************************

                    xk=(  -0.32500,  -0.32500,   0.32500  )

     Band symmetry, C_3v (3m)   point group:

     e(  1 -  1) =     -0.58834  eV     1   --> A_1  L_1       
     e(  2 -  2) =      8.41590  eV     1   --> A_1  L_1       
     e(  3 -  4) =     18.25989  eV     2   --> E    L_3       
     e(  5 -  6) =     20.95744  eV     2   --> E    L_3       
     e(  7 -  7) =     21.87467  eV     1   --> A_1  L_1       
     e(  8 -  8) =     25.02492  eV     1   --> A_1  L_1       

 **************************************************************************

 **************************************************************************

                    xk=(  -0.31250,  -0.31250,   0.31250  )

     Band symmetry, C_3v (3m)   point group:

     e(  1 -  1) =     -0.79957  eV     1   --> A_1  L_1       
     e(  2 -  2) =      8.84046  eV     1   --> A_1  L_1       
     e(  3 -  4) =     18.26626  eV     2   --> E    L_3       
     e(  5 -  6) =     21.15060  eV     2   --> E    L_3       
     e(  7 -  7) =     21.86333  eV     1   --> A_1  L_1       
     e(  8 -  8) =     25.22934  eV     1   --> A_1  L_1       

 **************************************************************************

 **************************************************************************

                    xk=(  -0.30000,  -0.30000,   0.30000  )

     Band symmetry, C_3v (3m)   point group:

     e(  1 -  1) =     -1.00281  eV     1   --> A_1  L_1       
     e(  2 -  2) =      9.27149  eV     1   --> A_1  L_1       
     e(  3 -  4) =     18.27957  eV     2   --> E    L_3       
     e(  5 -  6) =     21.34945  eV     2   --> E    L_3       
     e(  7 -  7) =     21.85826  eV     1   --> A_1  L_1       
     e(  8 -  8) =     25.43833  eV     1   --> A_1  L_1       

 **************************************************************************

 **************************************************************************

                    xk=(  -0.28750,  -0.28750,   0.28750  )

     Band symmetry, C_3v (3m)   point group:

     e(  1 -  1) =     -1.19801  eV     1   --> A_1  L_1       
     e(  2 -  2) =      9.70881  eV     1   --> A_1  L_1       
     e(  3 -  4) =     18.29981  eV     2   --> E    L_3       
     e(  5 -  6) =     21.55349  eV     2   --> E    L_3       
     e(  7 -  7) =     21.85909  eV     1   --> A_1  L_1       
     e(  8 -  8) =     25.65148  eV     1   --> A_1  L_1       

 **************************************************************************

 **************************************************************************

                    xk=(  -0.27500,  -0.27500,   0.27500  )

     Band symmetry, C_3v (3m)   point group:

     e(  1 -  1) =     -1.38514  eV     1   --> A_1  L_1       
     e(  2 -  2) =     10.15233  eV     1   --> A_1  L_1       
     e(  3 -  4) =     18.32698  eV     2   --> E    L_3       
     e(  5 -  6) =     21.76229  eV     2   --> E    L_3       
     e(  7 -  7) =     21.86562  eV     1   --> A_1  L_1       
     e(  8 -  8) =     25.86841  eV     1   --> A_1  L_1       

 **************************************************************************

 **************************************************************************

                    xk=(  -0.26250,  -0.26250,   0.26250  )

     Band symmetry, C_3v (3m)   point group:

     e(  1 -  1) =     -1.56419  eV     1   --> A_1  L_1       
     e(  2 -  2) =     10.60193  eV     1   --> A_1  L_1       
     e(  3 -  4) =     18.36105  eV     2   --> E    L_3       
     e(  5 -  5) =     21.87750  eV     1   --> A_1  L_1       
     e(  6 -  7) =     21.97501  eV     2   --> E    L_3       
     e(  8 -  8) =     26.08868  eV     1   --> A_1  L_1       

 **************************************************************************

 **************************************************************************

                    xk=(  -0.25000,  -0.25000,   0.25000  )

     Band symmetry, C_3v (3m)   point group:

     e(  1 -  1) =     -1.73510  eV     1   --> A_1  L_1       
     e(  2 -  2) =     11.05748  eV     1   --> A_1  L_1       
     e(  3 -  4) =     18.40202  eV     2   --> E    L_3       
     e(  5 -  5) =     21.89441  eV     1   --> A_1  L_1       
     e(  6 -  7) =     22.19058  eV     2   --> E    L_3       
     e(  8 -  8) =     26.27909  eV     1   -->   ?

 **************************************************************************

 **************************************************************************

                    xk=(  -0.23750,  -0.23750,   0.23750  )

     Band symmetry, C_3v (3m)   point group:

     e(  1 -  1) =     -1.89787  eV     1   --> A_1  L_1       
     e(  2 -  2) =     11.51879  eV     1   --> A_1  L_1       
     e(  3 -  4) =     18.44982  eV     2   --> E    L_3       
     e(  5 -  5) =     21.91587  eV     1   --> A_1  L_1       
     e(  6 -  7) =     22.40725  eV     2   --> E    L_3       
     e(  8 -  8) =     25.97825  eV     1   -->   ?

 **************************************************************************

 **************************************************************************

                    xk=(  -0.22500,  -0.22500,   0.22500  )

     Band symmetry, C_3v (3m)   point group:

     e(  1 -  1) =     -2.05245  eV     1   --> A_1  L_1       
     e(  2 -  2) =     11.98569  eV     1   --> A_1  L_1       
     e(  3 -  4) =     18.50444  eV     2   --> E    L_3       
     e(  5 -  5) =     21.94142  eV     1   --> A_1  L_1       
     e(  6 -  7) =     22.62249  eV     2   --> E    L_3       
     e(  8 -  8) =     25.69053  eV     1   -->   ?

 **************************************************************************

 **************************************************************************

                    xk=(  -0.21250,  -0.21250,   0.21250  )

     Band symmetry, C_3v (3m)   point group:

     e(  1 -  1) =     -2.19883  eV     1   --> A_1  L_1       
     e(  2 -  2) =     12.45796  eV     1   --> A_1  L_1       
     e(  3 -  4) =     18.56583  eV     2   --> E    L_3       
     e(  5 -  5) =     21.97046  eV     1   --> A_1  L_1       
     e(  6 -  7) =     22.83187  eV     2   --> E    L_3       
     e(  8 -  8) =     25.42026  eV     1   -->   ?

 **************************************************************************

 **************************************************************************

                    xk=(  -0.20000,  -0.20000,   0.20000  )

     Band symmetry, C_3v (3m)   point group:

     e(  1 -  1) =     -2.33698  eV     1   --> A_1  L_1       
     e(  2 -  2) =     12.93538  eV     1   --> A_1  L_1       
     e(  3 -  4) =     18.63393  eV     2   --> E    L_3       
     e(  5 -  5) =     22.00238  eV     1   --> A_1  L_1       
     e(  6 -  7) =     23.02765  eV     2   --> E    L_3       
     e(  8 -  8) =     25.17504  eV     1   -->   ?

 **************************************************************************

 **************************************************************************

                    xk=(  -0.18750,  -0.18750,   0.18750  )

     Band symmetry, C_3v (3m)   point group:

     e(  1 -  1) =     -2.46688  eV     1   --> A_1  L_1       
     e(  2 -  2) =     13.41766  eV     1   --> A_1  L_1       
     e(  3 -  4) =     18.70865  eV     2   --> E    L_3       
     e(  5 -  5) =     22.03637  eV     1   --> A_1  L_1       
     e(  6 -  7) =     23.19579  eV     2   --> E    L_3       
     e(  8 -  8) =     24.96866  eV     1   -->   ?

 **************************************************************************

 **************************************************************************

                    xk=(  -0.17500,  -0.17500,   0.17500  )

     Band symmetry, C_3v (3m)   point group:

     e(  1 -  1) =     -2.58850  eV     1   --> A_1  L_1       
     e(  2 -  2) =     13.90447  eV     1   --> A_1  L_1       
     e(  3 -  4) =     18.78991  eV     2   --> E    L_3       
     e(  5 -  5) =     22.07154  eV     1   --> A_1  L_1       
     e(  6 -  7) =     23.31226  eV     2   --> E    L_3       
     e(  8 -  8) =     24.82476  eV     1   -->   ?

 **************************************************************************

 **************************************************************************

                    xk=(  -0.16250,  -0.16250,   0.16250  )

     Band symmetry, C_3v (3m)   point group:

     e(  1 -  1) =     -2.70183  eV     1   --> A_1  L_1       
     e(  2 -  2) =     14.39542  eV     1   --> A_1  L_1       
     e(  3 -  4) =     18.87757  eV     2   --> E    L_3       
     e(  5 -  5) =     22.10681  eV     1   --> A_1  L_1       
     e(  6 -  7) =     23.34688  eV     2   --> E    L_3       
     e(  8 -  8) =     24.77302  eV     1   -->   ?

 **************************************************************************

 **************************************************************************

                    xk=(  -0.15000,  -0.15000,   0.15000  )

     Band symmetry, C_3v (3m)   point group:

     e(  1 -  1) =     -2.80684  eV     1   --> A_1  L_1       
     e(  2 -  2) =     14.89004  eV     1   --> A_1  L_1       
     e(  3 -  4) =     18.97148  eV     2   --> E    L_3       
     e(  5 -  5) =     22.14086  eV     1   --> A_1  L_1       
     e(  6 -  7) =     23.28708  eV     2   --> E    L_3       
     e(  8 -  8) =     24.82529  eV     1   -->   ?

 **************************************************************************

 **************************************************************************

                    xk=(  -0.13750,  -0.13750,   0.13750  )

     Band symmetry, C_3v (3m)   point group:

     e(  1 -  1) =     -2.90352  eV     1   --> A_1  L_1       
     e(  2 -  2) =     15.38774  eV     1   --> A_1  L_1       
     e(  3 -  4) =     19.07144  eV     2   --> E    L_3       
     e(  5 -  5) =     22.17211  eV     1   --> A_1  L_1       
     e(  6 -  7) =     23.15367  eV     2   --> E    L_3       
     e(  8 -  8) =     24.95997  eV     1   -->   ?

 **************************************************************************

 **************************************************************************

                    xk=(  -0.12500,  -0.12500,   0.12500  )

     Band symmetry, C_3v (3m)   point group:

     e(  1 -  1) =     -2.99184  eV     1   --> A_1  L_1       
     e(  2 -  2) =     15.88779  eV     1   --> A_1  L_1       
     e(  3 -  4) =     19.17707  eV     2   --> E    L_3       
     e(  5 -  5) =     22.19849  eV     1   --> A_1  L_1       
     e(  6 -  7) =     22.97777  eV     2   --> E    L_3       
     e(  8 -  8) =     25.14449  eV     1   -->   ?

 **************************************************************************

 **************************************************************************

                    xk=(  -0.11250,  -0.11250,   0.11250  )

     Band symmetry, C_3v (3m)   point group:

     e(  1 -  1) =     -3.07181  eV     1   --> A_1  L_1       
     e(  2 -  2) =     16.38925  eV     1   --> A_1  L_1       
     e(  3 -  4) =     19.28803  eV     2   --> E    L_3       
     e(  5 -  5) =     22.21742  eV     1   --> A_1  L_1       
     e(  6 -  7) =     22.78170  eV     2   --> E    L_3       
     e(  8 -  8) =     25.35539  eV     1   -->   ?

 **************************************************************************

 **************************************************************************

                    xk=(  -0.10000,  -0.10000,   0.10000  )

     Band symmetry, C_3v (3m)   point group:

     e(  1 -  1) =     -3.14339  eV     1   --> A_1  L_1       
     e(  2 -  2) =     16.89092  eV     1   --> A_1  L_1       
     e(  3 -  4) =     19.40372  eV     2   --> E    L_3       
     e(  5 -  5) =     22.22542  eV     1   --> A_1  L_1       
     e(  6 -  7) =     22.57821  eV     2   --> E    L_3       
     e(  8 -  8) =     25.57796  eV     1   -->   ?

 **************************************************************************

 **************************************************************************

                    xk=(  -0.08750,  -0.08750,   0.08750  )

     Band symmetry, C_3v (3m)   point group:

     e(  1 -  1) =     -3.20658  eV     1   --> A_1  L_1       
     e(  2 -  2) =     17.39112  eV     1   --> A_1  L_1       
     e(  3 -  4) =     19.52328  eV     2   --> E    L_3       
     e(  5 -  5) =     22.21780  eV     1   --> A_1  L_1       
     e(  6 -  7) =     22.37474  eV     2   --> E    L_3       
     e(  8 -  8) =     25.80241  eV     1   -->   ?

 **************************************************************************

 **************************************************************************

                    xk=(  -0.07500,  -0.07500,   0.07500  )

     Band symmetry, C_3v (3m)   point group:

     e(  1 -  1) =     -3.26137  eV     1   --> A_1  L_1       
     e(  2 -  2) =     17.88758  eV     1   --> A_1  L_1       
     e(  3 -  4) =     19.64545  eV     2   --> E    L_3       
     e(  5 -  6) =     22.17623  eV     2   --> E    L_3       
     e(  7 -  7) =     22.18821  eV     1   --> A_1  L_1       
     e(  8 -  8) =     25.66464  eV     1   --> A_1  L_1       

 **************************************************************************

 **************************************************************************

                    xk=(  -0.06250,  -0.06250,   0.06250  )

     Band symmetry, C_3v (3m)   point group:

     e(  1 -  1) =     -3.30774  eV     1   --> A_1  L_1       
     e(  2 -  2) =     18.37688  eV     1   --> A_1  L_1       
     e(  3 -  4) =     19.76816  eV     2   --> E    L_3       
     e(  5 -  6) =     21.98679  eV     2   --> E    L_3       
     e(  7 -  7) =     22.12837  eV     1   --> A_1  L_1       
     e(  8 -  8) =     25.26342  eV     1   --> A_1  L_1       

 **************************************************************************

 **************************************************************************

                    xk=(  -0.05000,  -0.05000,   0.05000  )

     Band symmetry, C_3v (3m)   point group:

     e(  1 -  1) =     -3.34570  eV     1   --> A_1  L_1       
     e(  2 -  2) =     18.85354  eV     1   --> A_1  L_1       
     e(  3 -  4) =     19.88823  eV     2   --> E    L_3       
     e(  5 -  6) =     21.81094  eV     2   --> E    L_3       
     e(  7 -  7) =     22.02877  eV     1   --> A_1  L_1       
     e(  8 -  8) =     24.90985  eV     1   --> A_1  L_1       

 **************************************************************************

 **************************************************************************

                    xk=(  -0.03750,  -0.03750,   0.03750  )

     Band symmetry, C_3v (3m)   point group:

     e(  1 -  1) =     -3.37522  eV     1   --> A_1  L_1       
     e(  2 -  2) =     19.30812  eV     1   --> A_1  L_1       
     e(  3 -  4) =     20.00038  eV     2   --> E    L_3       
     e(  5 -  6) =     21.65476  eV     2   --> E    L_3       
     e(  7 -  7) =     21.88253  eV     1   --> A_1  L_1       
     e(  8 -  8) =     24.62006  eV     1   --> A_1  L_1       

 **************************************************************************

 **************************************************************************

                    xk=(  -0.02500,  -0.02500,   0.02500  )

     Band symmetry, C_3v (3m)   point group:

     e(  1 -  1) =     -3.39632  eV     1   --> A_1  L_1       
     e(  2 -  2) =     19.72175  eV     1   --> A_1  L_1       
     e(  3 -  4) =     20.09622  eV     2   --> E    L_3       
     e(  5 -  6) =     21.52728  eV     2   --> E    L_3       
     e(  7 -  7) =     21.69488  eV     1   --> A_1  L_1       
     e(  8 -  8) =     24.40767  eV     1   --> A_1  L_1       

 **************************************************************************

 **************************************************************************

                    xk=(  -0.01250,  -0.01250,   0.01250  )

     Band symmetry, C_3v (3m)   point group:

     e(  1 -  1) =     -3.40898  eV     1   --> A_1  L_1       
     e(  2 -  2) =     20.04926  eV     1   --> A_1  L_1       
     e(  3 -  4) =     20.16314  eV     2   --> E    L_3       
     e(  5 -  6) =     21.44120  eV     2   --> E    L_3       
     e(  7 -  7) =     21.50347  eV     1   --> A_1  L_1       
     e(  8 -  8) =     24.27969  eV     1   --> A_1  L_1       

 **************************************************************************

 **************************************************************************

                    xk=(   0.00000,   0.00000,   0.00000  )

     point group O_h (m-3m) 
     there are 10 classes
     the character table:

       E     8C3   3C2   6C4   6C2'  i     8S6   3s_h  6S4   6s_d 
A_1g   1.00  1.00  1.00  1.00  1.00  1.00  1.00  1.00  1.00  1.00
A_2g   1.00  1.00  1.00 -1.00 -1.00  1.00  1.00  1.00 -1.00 -1.00
E_g    2.00 -1.00  2.00  0.00  0.00  2.00 -1.00  2.00  0.00  0.00
T_1g   3.00  0.00 -1.00  1.00 -1.00  3.00  0.00 -1.00  1.00 -1.00
T_2g   3.00  0.00 -1.00 -1.00  1.00  3.00  0.00 -1.00 -1.00  1.00
A_1u   1.00  1.00  1.00  1.00  1.00 -1.00 -1.00 -1.00 -1.00 -1.00
A_2u   1.00  1.00  1.00 -1.00 -1.00 -1.00 -1.00 -1.00  1.00  1.00
E_u    2.00 -1.00  2.00  0.00  0.00 -2.00  1.00 -2.00  0.00  0.00
T_1u   3.00  0.00 -1.00  1.00 -1.00 -3.00  0.00  1.00 -1.00  1.00
T_2u   3.00  0.00 -1.00 -1.00  1.00 -3.00  0.00  1.00  1.00 -1.00

     the symmetry operations in each class and the name of the first element:

     E        1
                                                                 
     8C3     17   19   20   18   24   21   22   23
                                                                 
     3C2      2    4    3
                                                                 
     6C4      7    8   15   16   12   11
                                                                 
     6C2'     5    6   14   13   10    9
                                                                 
     i       25
                                                                 
     8S6     41   43   44   42   48   45   46   47
                                                                 
     3s_h    26   28   27
                                                                 
     6S4     31   32   39   40   36   35
                                                                 
     6s_d    29   30   38   37   34   33
                                                                 

     Band symmetry, O_h (m-3m)  point group:

     e(  1 -  1) =     -3.41320  eV     1   --> A_1g G_1   G_1+
     e(  2 -  4) =     20.18760  eV     3   --> T_2g G_25' G_5+
     e(  5 -  7) =     21.41034  eV     3   --> T_1u G_15  G_4-
     e(  8 -  8) =     24.23721  eV     1   --> A_2u G_2'  G_2-

 **************************************************************************

     BANDS        :      2.51s CPU      2.63s WALL


   This run was terminated on:  14:58: 9  19Dec2025            

=------------------------------------------------------------------------------=
   JOB DONE.
=------------------------------------------------------------------------------=
