 CRYSTAL
 PRIMVEC
    3.078300126    0.000000000    0.000000000
   -1.539150063    2.665886110    0.000000000
    0.000000000    0.000000000    3.518889774
 PRIMCOORD
           3           1
Mg        0.000000000    0.000000000    0.000000000
B         0.000000000    1.777255629    1.759444887
B         1.539148524    0.888627815    1.759444887
BEGIN_BLOCK_DATAGRID_3D
3D_PWSCF
DATAGRID_3D_UNKNOWN
          32          32          32
  0.000000  0.000000  0.000000
  3.078300  0.000000  0.000000
 -1.539150  2.665886  0.000000
  0.000000  0.000000  3.518890
  0.198712E+01  0.261552E+01  0.337723E+01  0.292121E+01  0.169391E+01  0.720146E+00
  0.261999E+00  0.999455E-01  0.461998E-01  0.267301E-01  0.193371E-01  0.167920E-01
  0.160848E-01  0.159683E-01  0.160123E-01  0.160844E-01  0.161186E-01  0.160844E-01
  0.160123E-01  0.159683E-01  0.160848E-01  0.167920E-01  0.193371E-01  0.267301E-01
  0.461998E-01  0.999455E-01  0.261999E+00  0.720146E+00  0.169391E+01  0.292121E+01
  0.337723E+01  0.261552E+01  0.261552E+01  0.261552E+01  0.326559E+01  0.322854E+01
  0.219305E+01  0.105996E+01  0.408175E+00  0.150369E+00  0.636062E-01  0.333599E-01
  0.218529E-01  0.176181E-01  0.162931E-01  0.159884E-01  0.159837E-01  0.160524E-01
  0.161125E-01  0.161125E-01  0.160524E-01  0.159837E-01  0.159884E-01  0.162931E-01
  0.176181E-01  0.218529E-01  0.333599E-01  0.636062E-01  0.150369E+00  0.408175E+00
  0.105996E+01  0.219305E+01  0.322854E+01  0.326559E+01  0.337723E+01  0.326559E+01
  0.337723E+01  0.322854E+01  0.237426E+01  0.128309E+01  0.540281E+00  0.204436E+00
  0.833705E-01  0.410375E-01  0.249544E-01  0.187503E-01  0.166272E-01  0.160517E-01
  0.159709E-01  0.160232E-01  0.160965E-01  0.161305E-01  0.160965E-01  0.160232E-01
  0.159709E-01  0.160517E-01  0.166272E-01  0.187503E-01  0.249544E-01  0.410375E-01
  0.833705E-01  0.204436E+00  0.540281E+00  0.128309E+01  0.237426E+01  0.322854E+01
  0.292121E+01  0.322854E+01  0.322854E+01  0.292121E+01  0.219305E+01  0.128309E+01
  0.594243E+00  0.240811E+00  0.999388E-01  0.481647E-01  0.280919E-01  0.200280E-01
  0.170577E-01  0.161564E-01  0.159747E-01  0.160014E-01  0.160763E-01  0.161360E-01
  0.161360E-01  0.160763E-01  0.160014E-01  0.159747E-01  0.161564E-01  0.170577E-01
  0.200280E-01  0.280919E-01  0.481647E-01  0.999388E-01  0.240811E+00  0.594243E+00
  0.128309E+01  0.219305E+01  0.169391E+01  0.219305E+01  0.237426E+01  0.219305E+01
  0.169391E+01  0.105996E+01  0.540281E+00  0.240811E+00  0.106518E+00  0.525600E-01
  0.304764E-01  0.211647E-01  0.175022E-01  0.162858E-01  0.159914E-01  0.159874E-01
  0.160575E-01  0.161312E-01  0.161633E-01  0.161312E-01  0.160575E-01  0.159874E-01
  0.159914E-01  0.162858E-01  0.175022E-01  0.211647E-01  0.304764E-01  0.525600E-01
  0.106518E+00  0.240811E+00  0.540281E+00  0.105996E+01  0.720146E+00  0.105996E+01
  0.128309E+01  0.128309E+01  0.105996E+01  0.720146E+00  0.408175E+00  0.204436E+00
  0.999388E-01  0.525600E-01  0.313729E-01  0.218403E-01  0.178423E-01  0.164078E-01
  0.160140E-01  0.159781E-01  0.160422E-01  0.161212E-01  0.161752E-01  0.161752E-01
  0.161212E-01  0.160422E-01  0.159781E-01  0.160140E-01  0.164078E-01  0.178423E-01
  0.218403E-01  0.313729E-01  0.525600E-01  0.999388E-01  0.204436E+00  0.408175E+00
  0.261999E+00  0.408175E+00  0.540281E+00  0.594243E+00  0.540281E+00  0.408175E+00
  0.261999E+00  0.150369E+00  0.833705E-01  0.481647E-01  0.304764E-01  0.218403E-01
  0.179704E-01  0.164828E-01  0.160332E-01  0.159706E-01  0.160291E-01  0.161110E-01
  0.161764E-01  0.162015E-01  0.161764E-01  0.161110E-01  0.160291E-01  0.159706E-01
  0.160332E-01  0.164828E-01  0.179704E-01  0.218403E-01  0.304764E-01  0.481647E-01
  0.833705E-01  0.150369E+00  0.999455E-01  0.150369E+00  0.204436E+00  0.240811E+00
  0.240811E+00  0.204436E+00  0.150369E+00  0.999455E-01  0.636062E-01  0.410375E-01
  0.280919E-01  0.211647E-01  0.178423E-01  0.164828E-01  0.160407E-01  0.159656E-01
  0.160187E-01  0.161036E-01  0.161760E-01  0.162150E-01  0.162150E-01  0.161760E-01
  0.161036E-01  0.160187E-01  0.159656E-01  0.160407E-01  0.164828E-01  0.178423E-01
  0.211647E-01  0.280919E-01  0.410375E-01  0.636062E-01  0.461998E-01  0.636062E-01
  0.833705E-01  0.999388E-01  0.106518E+00  0.999388E-01  0.833705E-01  0.636062E-01
  0.461998E-01  0.333599E-01  0.249544E-01  0.200280E-01  0.175022E-01  0.164078E-01
  0.160332E-01  0.159656E-01  0.160145E-01  0.161001E-01  0.161784E-01  0.162250E-01
  0.162388E-01  0.162250E-01  0.161784E-01  0.161001E-01  0.160145E-01  0.159656E-01
  0.160332E-01  0.164078E-01  0.175022E-01  0.200280E-01  0.249544E-01  0.333599E-01
  0.267301E-01  0.333599E-01  0.410375E-01  0.481647E-01  0.525600E-01  0.525600E-01
  0.481647E-01  0.410375E-01  0.333599E-01  0.267301E-01  0.218529E-01  0.187503E-01
  0.170577E-01  0.162858E-01  0.160140E-01  0.159706E-01  0.160187E-01  0.161001E-01
  0.161802E-01  0.162325E-01  0.162527E-01  0.162527E-01  0.162325E-01  0.161802E-01
  0.161001E-01  0.160187E-01  0.159706E-01  0.160140E-01  0.162858E-01  0.170577E-01
  0.187503E-01  0.218529E-01  0.193371E-01  0.218529E-01  0.249544E-01  0.280919E-01
  0.304764E-01  0.313729E-01  0.304764E-01  0.280919E-01  0.249544E-01  0.218529E-01
  0.193371E-01  0.176181E-01  0.166272E-01  0.161564E-01  0.159914E-01  0.159781E-01
  0.160291E-01  0.161036E-01  0.161784E-01  0.162325E-01  0.162575E-01  0.162630E-01
  0.162575E-01  0.162325E-01  0.161784E-01  0.161036E-01  0.160291E-01  0.159781E-01
  0.159914E-01  0.161564E-01  0.166272E-01  0.176181E-01  0.167920E-01  0.176181E-01
  0.187503E-01  0.200280E-01  0.211647E-01  0.218403E-01  0.218403E-01  0.211647E-01
  0.200280E-01  0.187503E-01  0.176181E-01  0.167920E-01  0.162931E-01  0.160517E-01
  0.159747E-01  0.159874E-01  0.160422E-01  0.161110E-01  0.161760E-01  0.162250E-01
  0.162527E-01  0.162630E-01  0.162630E-01  0.162527E-01  0.162250E-01  0.161760E-01
  0.161110E-01  0.160422E-01  0.159874E-01  0.159747E-01  0.160517E-01  0.162931E-01
  0.160848E-01  0.162931E-01  0.166272E-01  0.170577E-01  0.175022E-01  0.178423E-01
  0.179704E-01  0.178423E-01  0.175022E-01  0.170577E-01  0.166272E-01  0.162931E-01
  0.160848E-01  0.159884E-01  0.159709E-01  0.160014E-01  0.160575E-01  0.161212E-01
  0.161764E-01  0.162150E-01  0.162388E-01  0.162527E-01  0.162575E-01  0.162527E-01
  0.162388E-01  0.162150E-01  0.161764E-01  0.161212E-01  0.160575E-01  0.160014E-01
  0.159709E-01  0.159884E-01  0.159683E-01  0.159884E-01  0.160517E-01  0.161564E-01
  0.162858E-01  0.164078E-01  0.164828E-01  0.164828E-01  0.164078E-01  0.162858E-01
  0.161564E-01  0.160517E-01  0.159884E-01  0.159683E-01  0.159837E-01  0.160232E-01
  0.160763E-01  0.161312E-01  0.161752E-01  0.162015E-01  0.162150E-01  0.162250E-01
  0.162325E-01  0.162325E-01  0.162250E-01  0.162150E-01  0.162015E-01  0.161752E-01
  0.161312E-01  0.160763E-01  0.160232E-01  0.159837E-01  0.160123E-01  0.159837E-01
  0.159709E-01  0.159747E-01  0.159914E-01  0.160140E-01  0.160332E-01  0.160407E-01
  0.160332E-01  0.160140E-01  0.159914E-01  0.159747E-01  0.159709E-01  0.159837E-01
  0.160123E-01  0.160524E-01  0.160965E-01  0.161360E-01  0.161633E-01  0.161752E-01
  0.161764E-01  0.161760E-01  0.161784E-01  0.161802E-01  0.161784E-01  0.161760E-01
  0.161764E-01  0.161752E-01  0.161633E-01  0.161360E-01  0.160965E-01  0.160524E-01
  0.160844E-01  0.160524E-01  0.160232E-01  0.160014E-01  0.159874E-01  0.159781E-01
  0.159706E-01  0.159656E-01  0.159656E-01  0.159706E-01  0.159781E-01  0.159874E-01
  0.160014E-01  0.160232E-01  0.160524E-01  0.160844E-01  0.161125E-01  0.161305E-01
  0.161360E-01  0.161312E-01  0.161212E-01  0.161110E-01  0.161036E-01  0.161001E-01
  0.161001E-01  0.161036E-01  0.161110E-01  0.161212E-01  0.161312E-01  0.161360E-01
  0.161305E-01  0.161125E-01  0.161186E-01  0.161125E-01  0.160965E-01  0.160763E-01
  0.160575E-01  0.160422E-01  0.160291E-01  0.160187E-01  0.160145E-01  0.160187E-01
  0.160291E-01  0.160422E-01  0.160575E-01  0.160763E-01  0.160965E-01  0.161125E-01
  0.161186E-01  0.161125E-01  0.160965E-01  0.160763E-01  0.160575E-01  0.160422E-01
  0.160291E-01  0.160187E-01  0.160145E-01  0.160187E-01  0.160291E-01  0.160422E-01
  0.160575E-01  0.160763E-01  0.160965E-01  0.161125E-01  0.160844E-01  0.161125E-01
  0.161305E-01  0.161360E-01  0.161312E-01  0.161212E-01  0.161110E-01  0.161036E-01
  0.161001E-01  0.161001E-01  0.161036E-01  0.161110E-01  0.161212E-01  0.161312E-01
  0.161360E-01  0.161305E-01  0.161125E-01  0.160844E-01  0.160524E-01  0.160232E-01
  0.160014E-01  0.159874E-01  0.159781E-01  0.159706E-01  0.159656E-01  0.159656E-01
  0.159706E-01  0.159781E-01  0.159874E-01  0.160014E-01  0.160232E-01  0.160524E-01
  0.160123E-01  0.160524E-01  0.160965E-01  0.161360E-01  0.161633E-01  0.161752E-01
  0.161764E-01  0.161760E-01  0.161784E-01  0.161802E-01  0.161784E-01  0.161760E-01
  0.161764E-01  0.161752E-01  0.161633E-01  0.161360E-01  0.160965E-01  0.160524E-01
  0.160123E-01  0.159837E-01  0.159709E-01  0.159747E-01  0.159914E-01  0.160140E-01
  0.160332E-01  0.160407E-01  0.160332E-01  0.160140E-01  0.159914E-01  0.159747E-01
  0.159709E-01  0.159837E-01  0.159683E-01  0.159837E-01  0.160232E-01  0.160763E-01
  0.161312E-01  0.161752E-01  0.162015E-01  0.162150E-01  0.162250E-01  0.162325E-01
  0.162325E-01  0.162250E-01  0.162150E-01  0.162015E-01  0.161752E-01  0.161312E-01
  0.160763E-01  0.160232E-01  0.159837E-01  0.159683E-01  0.159884E-01  0.160517E-01
  0.161564E-01  0.162858E-01  0.164078E-01  0.164828E-01  0.164828E-01  0.164078E-01
  0.162858E-01  0.161564E-01  0.160517E-01  0.159884E-01  0.160848E-01  0.159884E-01
  0.159709E-01  0.160014E-01  0.160575E-01  0.161212E-01  0.161764E-01  0.162150E-01
  0.162388E-01  0.162527E-01  0.162575E-01  0.162527E-01  0.162388E-01  0.162150E-01
  0.161764E-01  0.161212E-01  0.160575E-01  0.160014E-01  0.159709E-01  0.159884E-01
  0.160848E-01  0.162931E-01  0.166272E-01  0.170577E-01  0.175022E-01  0.178423E-01
  0.179704E-01  0.178423E-01  0.175022E-01  0.170577E-01  0.166272E-01  0.162931E-01
  0.167920E-01  0.162931E-01  0.160517E-01  0.159747E-01  0.159874E-01  0.160422E-01
  0.161110E-01  0.161760E-01  0.162250E-01  0.162527E-01  0.162630E-01  0.162630E-01
  0.162527E-01  0.162250E-01  0.161760E-01  0.161110E-01  0.160422E-01  0.159874E-01
  0.159747E-01  0.160517E-01  0.162931E-01  0.167920E-01  0.176181E-01  0.187503E-01
  0.200280E-01  0.211647E-01  0.218403E-01  0.218403E-01  0.211647E-01  0.200280E-01
  0.187503E-01  0.176181E-01  0.193371E-01  0.176181E-01  0.166272E-01  0.161564E-01
  0.159914E-01  0.159781E-01  0.160291E-01  0.161036E-01  0.161784E-01  0.162325E-01
  0.162575E-01  0.162630E-01  0.162575E-01  0.162325E-01  0.161784E-01  0.161036E-01
  0.160291E-01  0.159781E-01  0.159914E-01  0.161564E-01  0.166272E-01  0.176181E-01
  0.193371E-01  0.218529E-01  0.249544E-01  0.280919E-01  0.304764E-01  0.313729E-01
  0.304764E-01  0.280919E-01  0.249544E-01  0.218529E-01  0.267301E-01  0.218529E-01
  0.187503E-01  0.170577E-01  0.162858E-01  0.160140E-01  0.159706E-01  0.160187E-01
  0.161001E-01  0.161802E-01  0.162325E-01  0.162527E-01  0.162527E-01  0.162325E-01
  0.161802E-01  0.161001E-01  0.160187E-01  0.159706E-01  0.160140E-01  0.162858E-01
  0.170577E-01  0.187503E-01  0.218529E-01  0.267301E-01  0.333599E-01  0.410375E-01
  0.481647E-01  0.525600E-01  0.525600E-01  0.481647E-01  0.410375E-01  0.333599E-01
  0.461998E-01  0.333599E-01  0.249544E-01  0.200280E-01  0.175022E-01  0.164078E-01
  0.160332E-01  0.159656E-01  0.160145E-01  0.161001E-01  0.161784E-01  0.162250E-01
  0.162388E-01  0.162250E-01  0.161784E-01  0.161001E-01  0.160145E-01  0.159656E-01
  0.160332E-01  0.164078E-01  0.175022E-01  0.200280E-01  0.249544E-01  0.333599E-01
  0.461998E-01  0.636062E-01  0.833705E-01  0.999388E-01  0.106518E+00  0.999388E-01
  0.833705E-01  0.636062E-01  0.999455E-01  0.636062E-01  0.410375E-01  0.280919E-01
  0.211647E-01  0.178423E-01  0.164828E-01  0.160407E-01  0.159656E-01  0.160187E-01
  0.161036E-01  0.161760E-01  0.162150E-01  0.162150E-01  0.161760E-01  0.161036E-01
  0.160187E-01  0.159656E-01  0.160407E-01  0.164828E-01  0.178423E-01  0.211647E-01
  0.280919E-01  0.410375E-01  0.636062E-01  0.999455E-01  0.150369E+00  0.204436E+00
  0.240811E+00  0.240811E+00  0.204436E+00  0.150369E+00  0.261999E+00  0.150369E+00
  0.833705E-01  0.481647E-01  0.304764E-01  0.218403E-01  0.179704E-01  0.164828E-01
  0.160332E-01  0.159706E-01  0.160291E-01  0.161110E-01  0.161764E-01  0.162015E-01
  0.161764E-01  0.161110E-01  0.160291E-01  0.159706E-01  0.160332E-01  0.164828E-01
  0.179704E-01  0.218403E-01  0.304764E-01  0.481647E-01  0.833705E-01  0.150369E+00
  0.261999E+00  0.408175E+00  0.540281E+00  0.594243E+00  0.540281E+00  0.408175E+00
  0.720146E+00  0.408175E+00  0.204436E+00  0.999388E-01  0.525600E-01  0.313729E-01
  0.218403E-01  0.178423E-01  0.164078E-01  0.160140E-01  0.159781E-01  0.160422E-01
  0.161212E-01  0.161752E-01  0.161752E-01  0.161212E-01  0.160422E-01  0.159781E-01
  0.160140E-01  0.164078E-01  0.178423E-01  0.218403E-01  0.313729E-01  0.525600E-01
  0.999388E-01  0.204436E+00  0.408175E+00  0.720146E+00  0.105996E+01  0.128309E+01
  0.128309E+01  0.105996E+01  0.169391E+01  0.105996E+01  0.540281E+00  0.240811E+00
  0.106518E+00  0.525600E-01  0.304764E-01  0.211647E-01  0.175022E-01  0.162858E-01
  0.159914E-01  0.159874E-01  0.160575E-01  0.161312E-01  0.161633E-01  0.161312E-01
  0.160575E-01  0.159874E-01  0.159914E-01  0.162858E-01  0.175022E-01  0.211647E-01
  0.304764E-01  0.525600E-01  0.106518E+00  0.240811E+00  0.540281E+00  0.105996E+01
  0.169391E+01  0.219305E+01  0.237426E+01  0.219305E+01  0.292121E+01  0.219305E+01
  0.128309E+01  0.594243E+00  0.240811E+00  0.999388E-01  0.481647E-01  0.280919E-01
  0.200280E-01  0.170577E-01  0.161564E-01  0.159747E-01  0.160014E-01  0.160763E-01
  0.161360E-01  0.161360E-01  0.160763E-01  0.160014E-01  0.159747E-01  0.161564E-01
  0.170577E-01  0.200280E-01  0.280919E-01  0.481647E-01  0.999388E-01  0.240811E+00
  0.594243E+00  0.128309E+01  0.219305E+01  0.292121E+01  0.322854E+01  0.322854E+01
  0.337723E+01  0.322854E+01  0.237426E+01  0.128309E+01  0.540281E+00  0.204436E+00
  0.833705E-01  0.410375E-01  0.249544E-01  0.187503E-01  0.166272E-01  0.160517E-01
  0.159709E-01  0.160232E-01  0.160965E-01  0.161305E-01  0.160965E-01  0.160232E-01
  0.159709E-01  0.160517E-01  0.166272E-01  0.187503E-01  0.249544E-01  0.410375E-01
  0.833705E-01  0.204436E+00  0.540281E+00  0.128309E+01  0.237426E+01  0.322854E+01
  0.337723E+01  0.326559E+01  0.261552E+01  0.326559E+01  0.322854E+01  0.219305E+01
  0.105996E+01  0.408175E+00  0.150369E+00  0.636062E-01  0.333599E-01  0.218529E-01
  0.176181E-01  0.162931E-01  0.159884E-01  0.159837E-01  0.160524E-01  0.161125E-01
  0.161125E-01  0.160524E-01  0.159837E-01  0.159884E-01  0.162931E-01  0.176181E-01
  0.218529E-01  0.333599E-01  0.636062E-01  0.150369E+00  0.408175E+00  0.105996E+01
  0.219305E+01  0.322854E+01  0.326559E+01  0.261552E+01  0.276247E+01  0.311518E+01
  0.338145E+01  0.268681E+01  0.150343E+01  0.635064E+00  0.234846E+00  0.923408E-01
  0.440152E-01  0.261535E-01  0.193401E-01  0.170169E-01  0.163930E-01  0.163111E-01
  0.163726E-01  0.164539E-01  0.164910E-01  0.164539E-01  0.163726E-01  0.163111E-01
  0.163930E-01  0.170169E-01  0.193401E-01  0.261535E-01  0.440152E-01  0.923408E-01
  0.234846E+00  0.635064E+00  0.150343E+01  0.268681E+01  0.338145E+01  0.311518E+01
  0.311518E+01  0.311518E+01  0.339094E+01  0.303747E+01  0.196590E+01  0.934405E+00
  0.362421E+00  0.136969E+00  0.597992E-01  0.322598E-01  0.216558E-01  0.177663E-01
  0.165719E-01  0.163180E-01  0.163368E-01  0.164183E-01  0.164842E-01  0.164842E-01
  0.164183E-01  0.163368E-01  0.163180E-01  0.165719E-01  0.177663E-01  0.216558E-01
  0.322598E-01  0.597992E-01  0.136969E+00  0.362421E+00  0.934405E+00  0.196590E+01
  0.303747E+01  0.339094E+01  0.338145E+01  0.339094E+01  0.338145E+01  0.303747E+01
  0.213852E+01  0.113288E+01  0.477710E+00  0.184473E+00  0.775532E-01  0.393020E-01
  0.245168E-01  0.188023E-01  0.168688E-01  0.163656E-01  0.163159E-01  0.163845E-01
  0.164664E-01  0.165031E-01  0.164664E-01  0.163845E-01  0.163159E-01  0.163656E-01
  0.168688E-01  0.188023E-01  0.245168E-01  0.393020E-01  0.775532E-01  0.184473E+00
  0.477710E+00  0.113288E+01  0.213852E+01  0.303747E+01  0.268681E+01  0.303747E+01
  0.303747E+01  0.268681E+01  0.196590E+01  0.113288E+01  0.524859E+00  0.216322E+00
  0.923356E-01  0.458069E-01  0.274111E-01  0.199767E-01  0.172575E-01  0.164531E-01
  0.163112E-01  0.163580E-01  0.164442E-01  0.165090E-01  0.165090E-01  0.164442E-01
  0.163580E-01  0.163112E-01  0.164531E-01  0.172575E-01  0.199767E-01  0.274111E-01
  0.458069E-01  0.923356E-01  0.216322E+00  0.524859E+00  0.113288E+01  0.196590E+01
  0.150343E+01  0.196590E+01  0.213852E+01  0.196590E+01  0.150343E+01  0.934405E+00
  0.477710E+00  0.216322E+00  0.981855E-01  0.498032E-01  0.296087E-01  0.210240E-01
  0.176622E-01  0.165659E-01  0.163202E-01  0.163400E-01  0.164241E-01  0.165052E-01
  0.165395E-01  0.165052E-01  0.164241E-01  0.163400E-01  0.163202E-01  0.165659E-01
  0.176622E-01  0.210240E-01  0.296087E-01  0.498032E-01  0.981855E-01  0.216322E+00
  0.477710E+00  0.934405E+00  0.635064E+00  0.934405E+00  0.113288E+01  0.113288E+01
  0.934405E+00  0.635064E+00  0.362421E+00  0.184473E+00  0.923356E-01  0.498032E-01
  0.304343E-01  0.216469E-01  0.179732E-01  0.166743E-01  0.163367E-01  0.163278E-01
  0.164081E-01  0.164968E-01  0.165550E-01  0.165550E-01  0.164968E-01  0.164081E-01
  0.163278E-01  0.163367E-01  0.166743E-01  0.179732E-01  0.216469E-01  0.304343E-01
  0.498032E-01  0.923356E-01  0.184473E+00  0.362421E+00  0.234846E+00  0.362421E+00
  0.477710E+00  0.524859E+00  0.477710E+00  0.362421E+00  0.234846E+00  0.136969E+00
  0.775532E-01  0.458069E-01  0.296087E-01  0.216469E-01  0.180905E-01  0.167416E-01
  0.163518E-01  0.163183E-01  0.163946E-01  0.164881E-01  0.165597E-01  0.165865E-01
  0.165597E-01  0.164881E-01  0.163946E-01  0.163183E-01  0.163518E-01  0.167416E-01
  0.180905E-01  0.216469E-01  0.296087E-01  0.458069E-01  0.775532E-01  0.136969E+00
  0.923408E-01  0.136969E+00  0.184473E+00  0.216322E+00  0.216322E+00  0.184473E+00
  0.136969E+00  0.923408E-01  0.597992E-01  0.393020E-01  0.274111E-01  0.210240E-01
  0.179732E-01  0.167416E-01  0.163579E-01  0.163122E-01  0.163837E-01  0.164816E-01
  0.165619E-01  0.166044E-01  0.166044E-01  0.165619E-01  0.164816E-01  0.163837E-01
  0.163122E-01  0.163579E-01  0.167416E-01  0.179732E-01  0.210240E-01  0.274111E-01
  0.393020E-01  0.597992E-01  0.440152E-01  0.597992E-01  0.775532E-01  0.923356E-01
  0.981855E-01  0.923356E-01  0.775532E-01  0.597992E-01  0.440152E-01  0.322598E-01
  0.245168E-01  0.199767E-01  0.176622E-01  0.166743E-01  0.163518E-01  0.163122E-01
  0.163793E-01  0.164781E-01  0.165656E-01  0.166173E-01  0.166328E-01  0.166173E-01
  0.165656E-01  0.164781E-01  0.163793E-01  0.163122E-01  0.163518E-01  0.166743E-01
  0.176622E-01  0.199767E-01  0.245168E-01  0.322598E-01  0.261535E-01  0.322598E-01
  0.393020E-01  0.458069E-01  0.498032E-01  0.498032E-01  0.458069E-01  0.393020E-01
  0.322598E-01  0.261535E-01  0.216558E-01  0.188023E-01  0.172575E-01  0.165659E-01
  0.163367E-01  0.163183E-01  0.163837E-01  0.164781E-01  0.165678E-01  0.166264E-01
  0.166497E-01  0.166497E-01  0.166264E-01  0.165678E-01  0.164781E-01  0.163837E-01
  0.163183E-01  0.163367E-01  0.165659E-01  0.172575E-01  0.188023E-01  0.216558E-01
  0.193401E-01  0.216558E-01  0.245168E-01  0.274111E-01  0.296087E-01  0.304343E-01
  0.296087E-01  0.274111E-01  0.245168E-01  0.216558E-01  0.193401E-01  0.177663E-01
  0.168688E-01  0.164531E-01  0.163202E-01  0.163278E-01  0.163946E-01  0.164816E-01
  0.165656E-01  0.166264E-01  0.166556E-01  0.166626E-01  0.166556E-01  0.166264E-01
  0.165656E-01  0.164816E-01  0.163946E-01  0.163278E-01  0.163202E-01  0.164531E-01
  0.168688E-01  0.177663E-01  0.170169E-01  0.177663E-01  0.188023E-01  0.199767E-01
  0.210240E-01  0.216469E-01  0.216469E-01  0.210240E-01  0.199767E-01  0.188023E-01
  0.177663E-01  0.170169E-01  0.165719E-01  0.163656E-01  0.163112E-01  0.163400E-01
  0.164081E-01  0.164881E-01  0.165619E-01  0.166173E-01  0.166497E-01  0.166626E-01
  0.166626E-01  0.166497E-01  0.166173E-01  0.165619E-01  0.164881E-01  0.164081E-01
  0.163400E-01  0.163112E-01  0.163656E-01  0.165719E-01  0.163930E-01  0.165719E-01
  0.168688E-01  0.172575E-01  0.176622E-01  0.179732E-01  0.180905E-01  0.179732E-01
  0.176622E-01  0.172575E-01  0.168688E-01  0.165719E-01  0.163930E-01  0.163180E-01
  0.163159E-01  0.163580E-01  0.164241E-01  0.164968E-01  0.165597E-01  0.166044E-01
  0.166328E-01  0.166497E-01  0.166556E-01  0.166497E-01  0.166328E-01  0.166044E-01
  0.165597E-01  0.164968E-01  0.164241E-01  0.163580E-01  0.163159E-01  0.163180E-01
  0.163111E-01  0.163180E-01  0.163656E-01  0.164531E-01  0.165659E-01  0.166743E-01
  0.167416E-01  0.167416E-01  0.166743E-01  0.165659E-01  0.164531E-01  0.163656E-01
  0.163180E-01  0.163111E-01  0.163368E-01  0.163845E-01  0.164442E-01  0.165052E-01
  0.165550E-01  0.165865E-01  0.166044E-01  0.166173E-01  0.166264E-01  0.166264E-01
  0.166173E-01  0.166044E-01  0.165865E-01  0.165550E-01  0.165052E-01  0.164442E-01
  0.163845E-01  0.163368E-01  0.163726E-01  0.163368E-01  0.163159E-01  0.163112E-01
  0.163202E-01  0.163367E-01  0.163518E-01  0.163579E-01  0.163518E-01  0.163367E-01
  0.163202E-01  0.163112E-01  0.163159E-01  0.163368E-01  0.163726E-01  0.164183E-01
  0.164664E-01  0.165090E-01  0.165395E-01  0.165550E-01  0.165597E-01  0.165619E-01
  0.165656E-01  0.165678E-01  0.165656E-01  0.165619E-01  0.165597E-01  0.165550E-01
  0.165395E-01  0.165090E-01  0.164664E-01  0.164183E-01  0.164539E-01  0.164183E-01
  0.163845E-01  0.163580E-01  0.163400E-01  0.163278E-01  0.163183E-01  0.163122E-01
  0.163122E-01  0.163183E-01  0.163278E-01  0.163400E-01  0.163580E-01  0.163845E-01
  0.164183E-01  0.164539E-01  0.164842E-01  0.165031E-01  0.165090E-01  0.165052E-01
  0.164968E-01  0.164881E-01  0.164816E-01  0.164781E-01  0.164781E-01  0.164816E-01
  0.164881E-01  0.164968E-01  0.165052E-01  0.165090E-01  0.165031E-01  0.164842E-01
  0.164910E-01  0.164842E-01  0.164664E-01  0.164442E-01  0.164241E-01  0.164081E-01
  0.163946E-01  0.163837E-01  0.163793E-01  0.163837E-01  0.163946E-01  0.164081E-01
  0.164241E-01  0.164442E-01  0.164664E-01  0.164842E-01  0.164910E-01  0.164842E-01
  0.164664E-01  0.164442E-01  0.164241E-01  0.164081E-01  0.163946E-01  0.163837E-01
  0.163793E-01  0.163837E-01  0.163946E-01  0.164081E-01  0.164241E-01  0.164442E-01
  0.164664E-01  0.164842E-01  0.164539E-01  0.164842E-01  0.165031E-01  0.165090E-01
  0.165052E-01  0.164968E-01  0.164881E-01  0.164816E-01  0.164781E-01  0.164781E-01
  0.164816E-01  0.164881E-01  0.164968E-01  0.165052E-01  0.165090E-01  0.165031E-01
  0.164842E-01  0.164539E-01  0.164183E-01  0.163845E-01  0.163580E-01  0.163400E-01
  0.163278E-01  0.163183E-01  0.163122E-01  0.163122E-01  0.163183E-01  0.163278E-01
  0.163400E-01  0.163580E-01  0.163845E-01  0.164183E-01  0.163726E-01  0.164183E-01
  0.164664E-01  0.165090E-01  0.165395E-01  0.165550E-01  0.165597E-01  0.165619E-01
  0.165656E-01  0.165678E-01  0.165656E-01  0.165619E-01  0.165597E-01  0.165550E-01
  0.165395E-01  0.165090E-01  0.164664E-01  0.164183E-01  0.163726E-01  0.163368E-01
  0.163159E-01  0.163112E-01  0.163202E-01  0.163367E-01  0.163518E-01  0.163579E-01
  0.163518E-01  0.163367E-01  0.163202E-01  0.163112E-01  0.163159E-01  0.163368E-01
  0.163111E-01  0.163368E-01  0.163845E-01  0.164442E-01  0.165052E-01  0.165550E-01
  0.165865E-01  0.166044E-01  0.166173E-01  0.166264E-01  0.166264E-01  0.166173E-01
  0.166044E-01  0.165865E-01  0.165550E-01  0.165052E-01  0.164442E-01  0.163845E-01
  0.163368E-01  0.163111E-01  0.163180E-01  0.163656E-01  0.164531E-01  0.165659E-01
  0.166743E-01  0.167416E-01  0.167416E-01  0.166743E-01  0.165659E-01  0.164531E-01
  0.163656E-01  0.163180E-01  0.163930E-01  0.163180E-01  0.163159E-01  0.163580E-01
  0.164241E-01  0.164968E-01  0.165597E-01  0.166044E-01  0.166328E-01  0.166497E-01
  0.166556E-01  0.166497E-01  0.166328E-01  0.166044E-01  0.165597E-01  0.164968E-01
  0.164241E-01  0.163580E-01  0.163159E-01  0.163180E-01  0.163930E-01  0.165719E-01
  0.168688E-01  0.172575E-01  0.176622E-01  0.179732E-01  0.180905E-01  0.179732E-01
  0.176622E-01  0.172575E-01  0.168688E-01  0.165719E-01  0.170169E-01  0.165719E-01
  0.163656E-01  0.163112E-01  0.163400E-01  0.164081E-01  0.164881E-01  0.165619E-01
  0.166173E-01  0.166497E-01  0.166626E-01  0.166626E-01  0.166497E-01  0.166173E-01
  0.165619E-01  0.164881E-01  0.164081E-01  0.163400E-01  0.163112E-01  0.163656E-01
  0.165719E-01  0.170169E-01  0.177663E-01  0.188023E-01  0.199767E-01  0.210240E-01
  0.216469E-01  0.216469E-01  0.210240E-01  0.199767E-01  0.188023E-01  0.177663E-01
  0.193401E-01  0.177663E-01  0.168688E-01  0.164531E-01  0.163202E-01  0.163278E-01
  0.163946E-01  0.164816E-01  0.165656E-01  0.166264E-01  0.166556E-01  0.166626E-01
  0.166556E-01  0.166264E-01  0.165656E-01  0.164816E-01  0.163946E-01  0.163278E-01
  0.163202E-01  0.164531E-01  0.168688E-01  0.177663E-01  0.193401E-01  0.216558E-01
  0.245168E-01  0.274111E-01  0.296087E-01  0.304343E-01  0.296087E-01  0.274111E-01
  0.245168E-01  0.216558E-01  0.261535E-01  0.216558E-01  0.188023E-01  0.172575E-01
  0.165659E-01  0.163367E-01  0.163183E-01  0.163837E-01  0.164781E-01  0.165678E-01
  0.166264E-01  0.166497E-01  0.166497E-01  0.166264E-01  0.165678E-01  0.164781E-01
  0.163837E-01  0.163183E-01  0.163367E-01  0.165659E-01  0.172575E-01  0.188023E-01
  0.216558E-01  0.261535E-01  0.322598E-01  0.393020E-01  0.458069E-01  0.498032E-01
  0.498032E-01  0.458069E-01  0.393020E-01  0.322598E-01  0.440152E-01  0.322598E-01
  0.245168E-01  0.199767E-01  0.176622E-01  0.166743E-01  0.163518E-01  0.163122E-01
  0.163793E-01  0.164781E-01  0.165656E-01  0.166173E-01  0.166328E-01  0.166173E-01
  0.165656E-01  0.164781E-01  0.163793E-01  0.163122E-01  0.163518E-01  0.166743E-01
  0.176622E-01  0.199767E-01  0.245168E-01  0.322598E-01  0.440152E-01  0.597992E-01
  0.775532E-01  0.923356E-01  0.981855E-01  0.923356E-01  0.775532E-01  0.597992E-01
  0.923408E-01  0.597992E-01  0.393020E-01  0.274111E-01  0.210240E-01  0.179732E-01
  0.167416E-01  0.163579E-01  0.163122E-01  0.163837E-01  0.164816E-01  0.165619E-01
  0.166044E-01  0.166044E-01  0.165619E-01  0.164816E-01  0.163837E-01  0.163122E-01
  0.163579E-01  0.167416E-01  0.179732E-01  0.210240E-01  0.274111E-01  0.393020E-01
  0.597992E-01  0.923408E-01  0.136969E+00  0.184473E+00  0.216322E+00  0.216322E+00
  0.184473E+00  0.136969E+00  0.234846E+00  0.136969E+00  0.775532E-01  0.458069E-01
  0.296087E-01  0.216469E-01  0.180905E-01  0.167416E-01  0.163518E-01  0.163183E-01
  0.163946E-01  0.164881E-01  0.165597E-01  0.165865E-01  0.165597E-01  0.164881E-01
  0.163946E-01  0.163183E-01  0.163518E-01  0.167416E-01  0.180905E-01  0.216469E-01
  0.296087E-01  0.458069E-01  0.775532E-01  0.136969E+00  0.234846E+00  0.362421E+00
  0.477710E+00  0.524859E+00  0.477710E+00  0.362421E+00  0.635064E+00  0.362421E+00
  0.184473E+00  0.923356E-01  0.498032E-01  0.304343E-01  0.216469E-01  0.179732E-01
  0.166743E-01  0.163367E-01  0.163278E-01  0.164081E-01  0.164968E-01  0.165550E-01
  0.165550E-01  0.164968E-01  0.164081E-01  0.163278E-01  0.163367E-01  0.166743E-01
  0.179732E-01  0.216469E-01  0.304343E-01  0.498032E-01  0.923356E-01  0.184473E+00
  0.362421E+00  0.635064E+00  0.934405E+00  0.113288E+01  0.113288E+01  0.934405E+00
  0.150343E+01  0.934405E+00  0.477710E+00  0.216322E+00  0.981855E-01  0.498032E-01
  0.296087E-01  0.210240E-01  0.176622E-01  0.165659E-01  0.163202E-01  0.163400E-01
  0.164241E-01  0.165052E-01  0.165395E-01  0.165052E-01  0.164241E-01  0.163400E-01
  0.163202E-01  0.165659E-01  0.176622E-01  0.210240E-01  0.296087E-01  0.498032E-01
  0.981855E-01  0.216322E+00  0.477710E+00  0.934405E+00  0.150343E+01  0.196590E+01
  0.213852E+01  0.196590E+01  0.268681E+01  0.196590E+01  0.113288E+01  0.524859E+00
  0.216322E+00  0.923356E-01  0.458069E-01  0.274111E-01  0.199767E-01  0.172575E-01
  0.164531E-01  0.163112E-01  0.163580E-01  0.164442E-01  0.165090E-01  0.165090E-01
  0.164442E-01  0.163580E-01  0.163112E-01  0.164531E-01  0.172575E-01  0.199767E-01
  0.274111E-01  0.458069E-01  0.923356E-01  0.216322E+00  0.524859E+00  0.113288E+01
  0.196590E+01  0.268681E+01  0.303747E+01  0.303747E+01  0.338145E+01  0.303747E+01
  0.213852E+01  0.113288E+01  0.477710E+00  0.184473E+00  0.775532E-01  0.393020E-01
  0.245168E-01  0.188023E-01  0.168688E-01  0.163656E-01  0.163159E-01  0.163845E-01
  0.164664E-01  0.165031E-01  0.164664E-01  0.163845E-01  0.163159E-01  0.163656E-01
  0.168688E-01  0.188023E-01  0.245168E-01  0.393020E-01  0.775532E-01  0.184473E+00
  0.477710E+00  0.113288E+01  0.213852E+01  0.303747E+01  0.338145E+01  0.339094E+01
  0.311518E+01  0.339094E+01  0.303747E+01  0.196590E+01  0.934405E+00  0.362421E+00
  0.136969E+00  0.597992E-01  0.322598E-01  0.216558E-01  0.177663E-01  0.165719E-01
  0.163180E-01  0.163368E-01  0.164183E-01  0.164842E-01  0.164842E-01  0.164183E-01
  0.163368E-01  0.163180E-01  0.165719E-01  0.177663E-01  0.216558E-01  0.322598E-01
  0.597992E-01  0.136969E+00  0.362421E+00  0.934405E+00  0.196590E+01  0.303747E+01
  0.339094E+01  0.311518E+01  0.338555E+01  0.331576E+01  0.288154E+01  0.197918E+01
  0.103696E+01  0.438578E+00  0.172146E+00  0.741728E-01  0.386143E-01  0.247696E-01
  0.194626E-01  0.177245E-01  0.173265E-01  0.173440E-01  0.174588E-01  0.175686E-01
  0.176146E-01  0.175686E-01  0.174588E-01  0.173440E-01  0.173265E-01  0.177245E-01
  0.194626E-01  0.247696E-01  0.386143E-01  0.741728E-01  0.172146E+00  0.438578E+00