
     Program BANDS v.7.5 starts on 20Dec2025 at 17:52:53 

     This program is part of the open-source Quantum ESPRESSO suite
     for quantum simulation of materials; please cite
         "P. Giannozzi et al., J. Phys.:Condens. Matter 21 395502 (2009);
         "P. Giannozzi et al., J. Phys.:Condens. Matter 29 465901 (2017);
         "P. Giannozzi et al., J. Chem. Phys. 152 154105 (2020);
          URL http://www.quantum-espresso.org", 
     in publications or presentations arising from this work. More details at
     http://www.quantum-espresso.org/quote

     Serial version
     2739 MiB available memory on the printing compute node when the environment starts


     Reading xml data from directory:

     ./tmp/BeN.save/

     IMPORTANT: XC functional enforced from input :
     Exchange-correlation= PBE
                           (   1   4   3   4   0   0   0)
     Any further DFT definition will be discarded
     Please, verify this is what you really want


     G-vector sticks info
     --------------------
     sticks:   dense  smooth     PW     G-vecs:    dense   smooth      PW
     Sum         673     673    211                11791    11791    1989

     Using Slab Decomposition

     Reading collected, re-writing distributed wavefunctions
     high-symmetry point:  0.0000 0.0000 0.0000   x coordinate   0.0000
     high-symmetry point:  0.0000 0.0000 1.0000   x coordinate   1.0000
     high-symmetry point: -0.5000 0.0000 1.0000   x coordinate   1.5000
     high-symmetry point: -0.5000-0.5000 0.5000   x coordinate   2.2071
     high-symmetry point:  0.0000 0.0000 0.0000   x coordinate   3.0731

     Plottable bands (eV) written to file BeN.bands.dat.gnu
     Bands written to file BeN.bands.dat

 **************************************************************************

                    xk=(   0.00000,   0.00000,   0.00000  )

     point group O_h (m-3m) 
     there are 10 classes
     the character table:

       E     8C3   3C2   6C4   6C2'  i     8S6   3s_h  6S4   6s_d 
A_1g   1.00  1.00  1.00  1.00  1.00  1.00  1.00  1.00  1.00  1.00
A_2g   1.00  1.00  1.00 -1.00 -1.00  1.00  1.00  1.00 -1.00 -1.00
E_g    2.00 -1.00  2.00  0.00  0.00  2.00 -1.00  2.00  0.00  0.00
T_1g   3.00  0.00 -1.00  1.00 -1.00  3.00  0.00 -1.00  1.00 -1.00
T_2g   3.00  0.00 -1.00 -1.00  1.00  3.00  0.00 -1.00 -1.00  1.00
A_1u   1.00  1.00  1.00  1.00  1.00 -1.00 -1.00 -1.00 -1.00 -1.00
A_2u   1.00  1.00  1.00 -1.00 -1.00 -1.00 -1.00 -1.00  1.00  1.00
E_u    2.00 -1.00  2.00  0.00  0.00 -2.00  1.00 -2.00  0.00  0.00
T_1u   3.00  0.00 -1.00  1.00 -1.00 -3.00  0.00  1.00 -1.00  1.00
T_2u   3.00  0.00 -1.00 -1.00  1.00 -3.00  0.00  1.00  1.00 -1.00

     the symmetry operations in each class and the name of the first element:

     E        1
                                                                 
     8C3     17   19   20   18   24   21   22   23
                                                                 
     3C2      2    4    3
                                                                 
     6C4      7    8   15   16   12   11
                                                                 
     6C2'     5    6   14   13   10    9
                                                                 
     i       25
                                                                 
     8S6     41   43   44   42   48   45   46   47
                                                                 
     3s_h    26   28   27
                                                                 
     6S4     31   32   39   40   36   35
                                                                 
     6s_d    29   30   38   37   34   33
                                                                 

     Band symmetry, O_h (m-3m)  point group:

     e(  1 -  1) =    -89.44412  eV     1   --> A_1g G_1   G_1+
     e(  2 -  2) =     -8.22957  eV     1   --> A_1g G_1   G_1+
     e(  3 -  5) =     10.19924  eV     3   --> T_1u G_15  G_4-
     e(  6 -  6) =     20.26894  eV     1   --> A_1g G_1   G_1+
     e(  7 -  9) =     26.53830  eV     3   --> T_1u G_15  G_4-
     e( 10 - 10) =     28.89670  eV     1   -->   ?

 **************************************************************************

 **************************************************************************

                    xk=(   0.00000,   0.00000,   0.02500  )

     point group C_4v (4mm) 
     there are  5 classes
     the character table:

       E     2C4   C2    2s_v  2s_d 
A_1    1.00  1.00  1.00  1.00  1.00
A_2    1.00  1.00  1.00 -1.00 -1.00
B_1    1.00 -1.00  1.00  1.00 -1.00
B_2    1.00 -1.00  1.00 -1.00  1.00
E      2.00  0.00 -2.00  0.00  0.00

     the symmetry operations in each class and the name of the first element:

     E        1
                                                                 
     2C4      3    4
                                                                 
     C2       2
                                                                 
     2s_v     5    6
                                                                 
     2s_d     7    8
                                                                 

     Band symmetry, C_4v (4mm)  point group:

     e(  1 -  1) =    -89.44411  eV     1   --> A_1  G_1 D_1   
     e(  2 -  2) =     -8.22519  eV     1   --> A_1  G_1 D_1   
     e(  3 -  3) =     10.19163  eV     1   --> A_1  G_1 D_1   
     e(  4 -  5) =     10.19264  eV     2   --> E    G_5 D_5   
     e(  6 -  6) =     20.27681  eV     1   --> A_1  G_1 D_1   
     e(  7 -  7) =     26.49335  eV     1   --> A_1  G_1 D_1   
     e(  8 -  9) =     26.51562  eV     2   --> E    G_5 D_5   
     e( 10 - 10) =     28.83602  eV     1   --> B_2  G_4 D_2'  

 **************************************************************************

 **************************************************************************

                    xk=(   0.00000,   0.00000,   0.05000  )

     Band symmetry, C_4v (4mm)  point group:

     e(  1 -  1) =    -89.44409  eV     1   --> A_1  G_1 D_1   
     e(  2 -  2) =     -8.21203  eV     1   --> A_1  G_1 D_1   
     e(  3 -  3) =     10.16879  eV     1   --> A_1  G_1 D_1   
     e(  4 -  5) =     10.17290  eV     2   --> E    G_5 D_5   
     e(  6 -  6) =     20.30035  eV     1   --> A_1  G_1 D_1   
     e(  7 -  7) =     26.36186  eV     1   --> A_1  G_1 D_1   
     e(  8 -  9) =     26.45288  eV     2   --> E    G_5 D_5   
     e( 10 - 10) =     28.66534  eV     1   --> B_2  G_4 D_2'  

 **************************************************************************

 **************************************************************************

                    xk=(   0.00000,   0.00000,   0.07500  )

     Band symmetry, C_4v (4mm)  point group:

     e(  1 -  1) =    -89.44406  eV     1   --> A_1  G_1 D_1   
     e(  2 -  2) =     -8.19012  eV     1   --> A_1  G_1 D_1   
     e(  3 -  3) =     10.13068  eV     1   --> A_1  G_1 D_1   
     e(  4 -  5) =     10.14027  eV     2   --> E    G_5 D_5   
     e(  6 -  6) =     20.33944  eV     1   --> A_1  G_1 D_1   
     e(  7 -  7) =     26.15292  eV     1   --> A_1  G_1 D_1   
     e(  8 -  9) =     26.36242  eV     2   --> E    G_5 D_5   
     e( 10 - 10) =     28.41085  eV     1   --> B_2  G_4 D_2'  

 **************************************************************************

 **************************************************************************

                    xk=(   0.00000,   0.00000,   0.10000  )

     Band symmetry, C_4v (4mm)  point group:

     e(  1 -  1) =    -89.44402  eV     1   --> A_1  G_1 D_1   
     e(  2 -  2) =     -8.15945  eV     1   --> A_1  G_1 D_1   
     e(  3 -  3) =     10.07721  eV     1   --> A_1  G_1 D_1   
     e(  4 -  5) =     10.09513  eV     2   --> E    G_5 D_5   
     e(  6 -  6) =     20.39385  eV     1   --> A_1  G_1 D_1   
     e(  7 -  7) =     25.87924  eV     1   --> A_1  G_1 D_1   
     e(  8 -  9) =     26.25752  eV     2   --> E    G_5 D_5   
     e( 10 - 10) =     28.10006  eV     1   --> B_2  G_4 D_2'  

 **************************************************************************

 **************************************************************************

                    xk=(   0.00000,   0.00000,   0.12500  )

     Band symmetry, C_4v (4mm)  point group:

     e(  1 -  1) =    -89.44396  eV     1   --> A_1  G_1 D_1   
     e(  2 -  2) =     -8.12003  eV     1   --> A_1  G_1 D_1   
     e(  3 -  3) =     10.00831  eV     1   --> A_1  G_1 D_1   
     e(  4 -  5) =     10.03801  eV     2   --> E    G_5 D_5   
     e(  6 -  6) =     20.46328  eV     1   --> A_1  G_1 D_1   
     e(  7 -  7) =     25.55475  eV     1   --> A_1  G_1 D_1   
     e(  8 -  9) =     26.14874  eV     2   --> E    G_5 D_5   
     e( 10 - 10) =     27.75462  eV     1   --> B_2  G_4 D_2'  

 **************************************************************************

 **************************************************************************

                    xk=(   0.00000,   0.00000,   0.15000  )

     Band symmetry, C_4v (4mm)  point group:

     e(  1 -  1) =    -89.44389  eV     1   --> A_1  G_1 D_1   
     e(  2 -  2) =     -8.07189  eV     1   --> A_1  G_1 D_1   
     e(  3 -  3) =      9.92384  eV     1   --> A_1  G_1 D_1   
     e(  4 -  5) =      9.96956  eV     2   --> E    G_5 D_5   
     e(  6 -  6) =     20.54733  eV     1   --> A_1  G_1 D_1   
     e(  7 -  7) =     25.19279  eV     1   --> A_1  G_1 D_1   
     e(  8 -  9) =     26.04341  eV     2   --> E    G_5 D_5   
     e( 10 - 10) =     27.38959  eV     1   --> B_2  G_4 D_2'  

 **************************************************************************

 **************************************************************************

                    xk=(   0.00000,   0.00000,   0.17500  )

     Band symmetry, C_4v (4mm)  point group:

     e(  1 -  1) =    -89.44382  eV     1   --> A_1  G_1 D_1   
     e(  2 -  2) =     -8.01504  eV     1   --> A_1  G_1 D_1   
     e(  3 -  3) =      9.82367  eV     1   --> A_1  G_1 D_1   
     e(  4 -  5) =      9.89053  eV     2   --> E    G_5 D_5   
     e(  6 -  6) =     20.64549  eV     1   --> A_1  G_1 D_1   
     e(  7 -  7) =     24.80524  eV     1   --> A_1  G_1 D_1   
     e(  8 -  9) =     25.94626  eV     2   --> E    G_5 D_5   
     e( 10 - 10) =     27.01498  eV     1   --> B_2  G_4 D_2'  

 **************************************************************************

 **************************************************************************

                    xk=(   0.00000,   0.00000,   0.20000  )

     Band symmetry, C_4v (4mm)  point group:

     e(  1 -  1) =    -89.44373  eV     1   --> A_1  G_1 D_1   
     e(  2 -  2) =     -7.94950  eV     1   --> A_1  G_1 D_1   
     e(  3 -  3) =      9.70766  eV     1   --> A_1  G_1 D_1   
     e(  4 -  5) =      9.80177  eV     2   --> E    G_5 D_5   
     e(  6 -  6) =     20.75719  eV     1   --> A_1  G_1 D_1   
     e(  7 -  7) =     24.40217  eV     1   --> A_1  G_1 D_1   
     e(  8 -  9) =     25.86017  eV     2   --> E    G_5 D_5   
     e( 10 - 10) =     26.63739  eV     1   --> B_2  G_4 D_2'  

 **************************************************************************

 **************************************************************************

                    xk=(   0.00000,   0.00000,   0.22500  )

     Band symmetry, C_4v (4mm)  point group:

     e(  1 -  1) =    -89.44363  eV     1   --> A_1  G_1 D_1   
     e(  2 -  2) =     -7.87532  eV     1   --> A_1  G_1 D_1   
     e(  3 -  3) =      9.57569  eV     1   --> A_1  G_1 D_1   
     e(  4 -  5) =      9.70421  eV     2   --> E    G_5 D_5   
     e(  6 -  6) =     20.88169  eV     1   --> A_1  G_1 D_1   
     e(  7 -  7) =     23.99197  eV     1   --> A_1  G_1 D_1   
     e(  8 -  9) =     25.78683  eV     2   --> E    G_5 D_5   
     e( 10 - 10) =     26.26128  eV     1   --> B_2  G_4 D_2'  

 **************************************************************************

 **************************************************************************

                    xk=(   0.00000,   0.00000,   0.25000  )

     Band symmetry, C_4v (4mm)  point group:

     e(  1 -  1) =    -89.44352  eV     1   --> A_1  G_1 D_1   
     e(  2 -  2) =     -7.79251  eV     1   --> A_1  G_1 D_1   
     e(  3 -  3) =      9.42762  eV     1   --> A_1  G_1 D_1   
     e(  4 -  5) =      9.59882  eV     2   --> E    G_5 D_5   
     e(  6 -  6) =     21.01801  eV     1   --> A_1  G_1 D_1   
     e(  7 -  7) =     23.58168  eV     1   --> A_1  G_1 D_1   
     e(  8 -  9) =     25.72709  eV     2   --> E    G_5 D_5   
     e( 10 - 10) =     25.88969  eV     1   --> B_2  G_4 D_2'  

 **************************************************************************

 **************************************************************************

                    xk=(   0.00000,   0.00000,   0.27500  )

     Band symmetry, C_4v (4mm)  point group:

     e(  1 -  1) =    -89.44340  eV     1   --> A_1  G_1 D_1   
     e(  2 -  2) =     -7.70114  eV     1   --> A_1  G_1 D_1   
     e(  3 -  3) =      9.26340  eV     1   --> A_1  G_1 D_1   
     e(  4 -  5) =      9.48661  eV     2   --> E    G_5 D_5   
     e(  6 -  6) =     21.16479  eV     1   --> A_1  G_1 D_1   
     e(  7 -  7) =     23.17740  eV     1   --> A_1  G_1 D_1   
     e(  8 -  8) =     25.52473  eV     1   --> B_2  G_4 D_2'  
     e(  9 - 10) =     25.68128  eV     2   --> E    G_5 D_5   

 **************************************************************************

 **************************************************************************

                    xk=(   0.00000,   0.00000,   0.30000  )

     Band symmetry, C_4v (4mm)  point group:

     e(  1 -  1) =    -89.44327  eV     1   --> A_1  G_1 D_1   
     e(  2 -  2) =     -7.60124  eV     1   --> A_1  G_1 D_1   
     e(  3 -  3) =      9.08302  eV     1   --> A_1  G_1 D_1   
     e(  4 -  5) =      9.36859  eV     2   --> E    G_5 D_5   
     e(  6 -  6) =     21.31942  eV     1   --> A_1  G_1 D_1   
     e(  7 -  7) =     22.78533  eV     1   --> A_1  G_1 D_1   
     e(  8 -  8) =     25.16793  eV     1   --> B_2  G_4 D_2'  
     e(  9 - 10) =     25.64935  eV     2   --> E    G_5 D_5   

 **************************************************************************

 **************************************************************************

                    xk=(   0.00000,   0.00000,   0.32500  )

     Band symmetry, C_4v (4mm)  point group:

     e(  1 -  1) =    -89.44314  eV     1   --> A_1  G_1 D_1   
     e(  2 -  2) =     -7.49288  eV     1   --> A_1  G_1 D_1   
     e(  3 -  3) =      8.88655  eV     1   --> A_1  G_1 D_1   
     e(  4 -  5) =      9.24579  eV     2   --> E    G_5 D_5   
     e(  6 -  6) =     21.47494  eV     1   --> A_1  G_1 D_1   
     e(  7 -  7) =     22.41510  eV     1   --> A_1  G_1 D_1   
     e(  8 -  8) =     24.82041  eV     1   --> B_2  G_4 D_2'  
     e(  9 - 10) =     25.63099  eV     2   --> E    G_5 D_5   

 **************************************************************************

 **************************************************************************

                    xk=(   0.00000,   0.00000,   0.35000  )

     Band symmetry, C_4v (4mm)  point group:

     e(  1 -  1) =    -89.44300  eV     1   --> A_1  G_1 D_1   
     e(  2 -  2) =     -7.37614  eV     1   --> A_1  G_1 D_1   
     e(  3 -  3) =      8.67418  eV     1   --> A_1  G_1 D_1   
     e(  4 -  5) =      9.11923  eV     2   --> E    G_5 D_5   
     e(  6 -  6) =     21.59834  eV     1   --> A_1  G_1 D_1   
     e(  7 -  7) =     22.10166  eV     1   --> A_1  G_1 D_1   
     e(  8 -  8) =     24.48299  eV     1   --> B_2  G_4 D_2'  
     e(  9 - 10) =     25.62570  eV     2   --> E    G_5 D_5   

 **************************************************************************

 **************************************************************************

                    xk=(   0.00000,   0.00000,   0.37500  )

     Band symmetry, C_4v (4mm)  point group:

     e(  1 -  1) =    -89.44286  eV     1   --> A_1  G_1 D_1   
     e(  2 -  2) =     -7.25110  eV     1   --> A_1  G_1 D_1   
     e(  3 -  3) =      8.44621  eV     1   --> A_1  G_1 D_1   
     e(  4 -  5) =      8.98990  eV     2   --> E    G_5 D_5   
     e(  6 -  6) =     21.52299  eV     1   --> A_1  G_1 D_1   
     e(  7 -  7) =     22.01285  eV     1   --> A_1  G_1 D_1   
     e(  8 -  8) =     24.15630  eV     1   --> B_2  G_4 D_2'  
     e(  9 - 10) =     25.63287  eV     2   --> E    G_5 D_5   

 **************************************************************************

 **************************************************************************

                    xk=(   0.00000,   0.00000,   0.40000  )

     Band symmetry, C_4v (4mm)  point group:

     e(  1 -  1) =    -89.44271  eV     1   --> A_1  G_1 D_1   
     e(  2 -  2) =     -7.11787  eV     1   --> A_1  G_1 D_1   
     e(  3 -  3) =      8.20311  eV     1   --> A_1  G_1 D_1   
     e(  4 -  5) =      8.85874  eV     2   --> E    G_5 D_5   
     e(  6 -  6) =     21.24770  eV     1   --> A_1  G_1 D_1   
     e(  7 -  7) =     22.15053  eV     1   --> A_1  G_1 D_1   
     e(  8 -  8) =     23.84082  eV     1   --> B_2  G_4 D_2'  
     e(  9 - 10) =     25.65176  eV     2   --> E    G_5 D_5   

 **************************************************************************

 **************************************************************************

                    xk=(   0.00000,   0.00000,   0.42500  )

     Band symmetry, C_4v (4mm)  point group:

     e(  1 -  1) =    -89.44255  eV     1   --> A_1  G_1 D_1   
     e(  2 -  2) =     -6.97656  eV     1   --> A_1  G_1 D_1   
     e(  3 -  3) =      7.94550  eV     1   --> A_1  G_1 D_1   
     e(  4 -  5) =      8.72669  eV     2   --> E    G_5 D_5   
     e(  6 -  6) =     20.94697  eV     1   --> A_1  G_1 D_1   
     e(  7 -  7) =     22.34035  eV     1   --> A_1  G_1 D_1   
     e(  8 -  8) =     23.53693  eV     1   --> B_2  G_4 D_2'  
     e(  9 - 10) =     25.68158  eV     2   --> E    G_5 D_5   

 **************************************************************************

 **************************************************************************

                    xk=(   0.00000,   0.00000,   0.45000  )

     Band symmetry, C_4v (4mm)  point group:

     e(  1 -  1) =    -89.44240  eV     1   --> A_1  G_1 D_1   
     e(  2 -  2) =     -6.82732  eV     1   --> A_1  G_1 D_1   
     e(  3 -  3) =      7.67415  eV     1   --> A_1  G_1 D_1   
     e(  4 -  5) =      8.59461  eV     2   --> E    G_5 D_5   
     e(  6 -  6) =     20.65592  eV     1   --> A_1  G_1 D_1   
     e(  7 -  7) =     22.54688  eV     1   --> A_1  G_1 D_1   
     e(  8 -  8) =     23.24493  eV     1   --> B_2  G_4 D_2'  
     e(  9 - 10) =     25.72149  eV     2   --> E    G_5 D_5   

 **************************************************************************

 **************************************************************************

                    xk=(   0.00000,   0.00000,   0.47500  )

     Band symmetry, C_4v (4mm)  point group:

     e(  1 -  1) =    -89.44224  eV     1   --> A_1  G_1 D_1   
     e(  2 -  2) =     -6.67032  eV     1   --> A_1  G_1 D_1   
     e(  3 -  3) =      7.39003  eV     1   --> A_1  G_1 D_1   
     e(  4 -  5) =      8.46333  eV     2   --> E    G_5 D_5   
     e(  6 -  6) =     20.38136  eV     1   --> A_1  G_1 D_1   
     e(  7 -  7) =     22.76258  eV     1   --> A_1  G_1 D_1   
     e(  8 -  8) =     22.96507  eV     1   --> B_2  G_4 D_2'  
     e(  9 - 10) =     25.77057  eV     2   --> E    G_5 D_5   

 **************************************************************************

 **************************************************************************

                    xk=(   0.00000,   0.00000,   0.50000  )

     Band symmetry, C_4v (4mm)  point group:

     e(  1 -  1) =    -89.44208  eV     1   --> A_1  G_1 D_1   
     e(  2 -  2) =     -6.50575  eV     1   --> A_1  G_1 D_1   
     e(  3 -  3) =      7.09422  eV     1   --> A_1  G_1 D_1   
     e(  4 -  5) =      8.33362  eV     2   --> E    G_5 D_5   
     e(  6 -  6) =     20.12523  eV     1   --> A_1  G_1 D_1   
     e(  7 -  7) =     22.69752  eV     1   --> B_2  G_4 D_2'  
     e(  8 -  8) =     22.98443  eV     1   --> A_1  G_1 D_1   
     e(  9 - 10) =     25.82789  eV     2   --> E    G_5 D_5   

 **************************************************************************

 **************************************************************************

                    xk=(   0.00000,   0.00000,   0.52500  )

     Band symmetry, C_4v (4mm)  point group:

     e(  1 -  1) =    -89.44191  eV     1   --> A_1  G_1 D_1   
     e(  2 -  2) =     -6.33387  eV     1   --> A_1  G_1 D_1   
     e(  3 -  3) =      6.78798  eV     1   --> A_1  G_1 D_1   
     e(  4 -  5) =      8.20622  eV     2   --> E    G_5 D_5   
     e(  6 -  6) =     19.88804  eV     1   --> A_1  G_1 D_1   
     e(  7 -  7) =     22.44246  eV     1   --> B_2  G_4 D_2'  
     e(  8 -  8) =     23.21051  eV     1   --> A_1  G_1 D_1   
     e(  9 - 10) =     25.89248  eV     2   --> E    G_5 D_5   

 **************************************************************************

 **************************************************************************

                    xk=(   0.00000,   0.00000,   0.55000  )

     Band symmetry, C_4v (4mm)  point group:

     e(  1 -  1) =    -89.44176  eV     1   --> A_1  G_1 D_1   
     e(  2 -  2) =     -6.15496  eV     1   --> A_1  G_1 D_1   
     e(  3 -  3) =      6.47270  eV     1   --> A_1  G_1 D_1   
     e(  4 -  5) =      8.08179  eV     2   --> E    G_5 D_5   
     e(  6 -  6) =     19.66967  eV     1   --> A_1  G_1 D_1   
     e(  7 -  7) =     22.20000  eV     1   --> B_2  G_4 D_2'  
     e(  8 -  8) =     23.43925  eV     1   --> A_1  G_1 D_1   
     e(  9 - 10) =     25.96334  eV     2   --> E    G_5 D_5   

 **************************************************************************

 **************************************************************************

                    xk=(   0.00000,   0.00000,   0.57500  )

     Band symmetry, C_4v (4mm)  point group:

     e(  1 -  1) =    -89.44160  eV     1   --> A_1  G_1 D_1   
     e(  2 -  2) =     -5.96936  eV     1   --> A_1  G_1 D_1   
     e(  3 -  3) =      6.14987  eV     1   --> A_1  G_1 D_1   
     e(  4 -  5) =      7.96095  eV     2   --> E    G_5 D_5   
     e(  6 -  6) =     19.46965  eV     1   --> A_1  G_1 D_1   
     e(  7 -  7) =     21.97027  eV     1   --> B_2  G_4 D_2'  
     e(  8 -  8) =     23.66918  eV     1   --> A_1  G_1 D_1   
     e(  9 - 10) =     26.03943  eV     2   --> E    G_5 D_5   

 **************************************************************************

 **************************************************************************

                    xk=(   0.00000,   0.00000,   0.60000  )

     Band symmetry, C_4v (4mm)  point group:

     e(  1 -  1) =    -89.44144  eV     1   --> A_1  G_1 D_1   
     e(  2 -  2) =     -5.77748  eV     1   --> A_1  G_1 D_1   
     e(  3 -  3) =      5.82111  eV     1   --> A_1  G_1 D_1   
     e(  4 -  5) =      7.84430  eV     2   --> E    G_5 D_5   
     e(  6 -  6) =     19.28733  eV     1   --> A_1  G_1 D_1   
     e(  7 -  7) =     21.75334  eV     1   --> B_2  G_4 D_2'  
     e(  8 -  8) =     23.89888  eV     1   --> A_1  G_1 D_1   
     e(  9 - 10) =     26.11971  eV     2   --> E    G_5 D_5   

 **************************************************************************

 **************************************************************************

                    xk=(   0.00000,   0.00000,   0.62500  )

     Band symmetry, C_4v (4mm)  point group:

     e(  1 -  1) =    -89.44129  eV     1   --> A_1  G_1 D_1   
     e(  2 -  2) =     -5.57983  eV     1   --> A_1  G_1 D_1   
     e(  3 -  3) =      5.48811  eV     1   --> A_1  G_1 D_1   
     e(  4 -  5) =      7.73234  eV     2   --> E    G_5 D_5   
     e(  6 -  6) =     19.12189  eV     1   --> A_1  G_1 D_1   
     e(  7 -  7) =     21.54930  eV     1   --> B_2  G_4 D_2'  
     e(  8 -  8) =     24.12683  eV     1   --> A_1  G_1 D_1   
     e(  9 - 10) =     26.20308  eV     2   --> E    G_5 D_5   

 **************************************************************************

 **************************************************************************

                    xk=(   0.00000,   0.00000,   0.65000  )

     Band symmetry, C_4v (4mm)  point group:

     e(  1 -  1) =    -89.44115  eV     1   --> A_1  G_1 D_1   
     e(  2 -  2) =     -5.37703  eV     1   --> A_1  G_1 D_1   
     e(  3 -  3) =      5.15268  eV     1   --> A_1  G_1 D_1   
     e(  4 -  5) =      7.62557  eV     2   --> E    G_5 D_5   
     e(  6 -  6) =     18.97245  eV     1   --> A_1  G_1 D_1   
     e(  7 -  7) =     21.35821  eV     1   --> B_2  G_4 D_2'  
     e(  8 -  8) =     24.35152  eV     1   --> A_1  G_1 D_1   
     e(  9 - 10) =     26.28844  eV     2   --> E    G_5 D_5   

 **************************************************************************

 **************************************************************************

                    xk=(   0.00000,   0.00000,   0.67500  )

     Band symmetry, C_4v (4mm)  point group:

     e(  1 -  1) =    -89.44101  eV     1   --> A_1  G_1 D_1   
     e(  2 -  2) =     -5.16982  eV     1   --> A_1  G_1 D_1   
     e(  3 -  3) =      4.81672  eV     1   --> A_1  G_1 D_1   
     e(  4 -  5) =      7.52443  eV     2   --> E    G_5 D_5   
     e(  6 -  6) =     18.83810  eV     1   --> A_1  G_1 D_1   
     e(  7 -  7) =     21.18011  eV     1   --> B_2  G_4 D_2'  
     e(  8 -  8) =     24.57136  eV     1   --> A_1  G_1 D_1   
     e(  9 - 10) =     26.37469  eV     2   --> E    G_5 D_5   

 **************************************************************************

 **************************************************************************

                    xk=(   0.00000,   0.00000,   0.70000  )

     Band symmetry, C_4v (4mm)  point group:

     e(  1 -  1) =    -89.44087  eV     1   --> A_1  G_1 D_1   
     e(  2 -  2) =     -4.95912  eV     1   --> A_1  G_1 D_1   
     e(  3 -  3) =      4.48226  eV     1   --> A_1  G_1 D_1   
     e(  4 -  5) =      7.42930  eV     2   --> E    G_5 D_5   
     e(  6 -  6) =     18.71792  eV     1   --> A_1  G_1 D_1   
     e(  7 -  7) =     21.01507  eV     1   --> B_2  G_4 D_2'  
     e(  8 -  8) =     24.78471  eV     1   --> A_1  G_1 D_1   
     e(  9 - 10) =     26.46067  eV     2   --> E    G_5 D_5   

 **************************************************************************

 **************************************************************************

                    xk=(   0.00000,   0.00000,   0.72500  )

     Band symmetry, C_4v (4mm)  point group:

     e(  1 -  1) =    -89.44075  eV     1   --> A_1  G_1 D_1   
     e(  2 -  2) =     -4.74610  eV     1   --> A_1  G_1 D_1   
     e(  3 -  3) =      4.15150  eV     1   --> A_1  G_1 D_1   
     e(  4 -  5) =      7.34056  eV     2   --> E    G_5 D_5   
     e(  6 -  6) =     18.61101  eV     1   --> A_1  G_1 D_1   
     e(  7 -  7) =     20.86312  eV     1   --> B_2  G_4 D_2'  
     e(  8 -  8) =     24.98986  eV     1   --> A_1  G_1 D_1   
     e(  9 - 10) =     26.54526  eV     2   --> E    G_5 D_5   

 **************************************************************************

 **************************************************************************

                    xk=(   0.00000,   0.00000,   0.75000  )

     Band symmetry, C_4v (4mm)  point group:

     e(  1 -  1) =    -89.44063  eV     1   --> A_1  G_1 D_1   
     e(  2 -  2) =     -4.53218  eV     1   --> A_1  G_1 D_1   
     e(  3 -  3) =      3.82684  eV     1   --> A_1  G_1 D_1   
     e(  4 -  5) =      7.25853  eV     2   --> E    G_5 D_5   
     e(  6 -  6) =     18.51649  eV     1   --> A_1  G_1 D_1   
     e(  7 -  7) =     20.72428  eV     1   --> B_2  G_4 D_2'  
     e(  8 -  8) =     25.18509  eV     1   --> A_1  G_1 D_1   
     e(  9 - 10) =     26.62731  eV     2   --> E    G_5 D_5   

 **************************************************************************

 **************************************************************************

                    xk=(   0.00000,   0.00000,   0.77500  )

     Band symmetry, C_4v (4mm)  point group:

     e(  1 -  1) =    -89.44052  eV     1   --> A_1  G_1 D_1   
     e(  2 -  2) =     -4.31918  eV     1   --> A_1  G_1 D_1   
     e(  3 -  3) =      3.51099  eV     1   --> A_1  G_1 D_1   
     e(  4 -  5) =      7.18348  eV     2   --> E    G_5 D_5   
     e(  6 -  6) =     18.43355  eV     1   --> A_1  G_1 D_1   
     e(  7 -  7) =     20.59859  eV     1   --> B_2  G_4 D_2'  
     e(  8 -  8) =     25.36864  eV     1   --> A_1  G_1 D_1   
     e(  9 - 10) =     26.70572  eV     2   --> E    G_5 D_5   

 **************************************************************************

 **************************************************************************

                    xk=(   0.00000,   0.00000,   0.80000  )

     Band symmetry, C_4v (4mm)  point group:

     e(  1 -  1) =    -89.44042  eV     1   --> A_1  G_1 D_1   
     e(  2 -  2) =     -4.10938  eV     1   --> A_1  G_1 D_1   
     e(  3 -  3) =      3.20702  eV     1   --> A_1  G_1 D_1   
     e(  4 -  5) =      7.11569  eV     2   --> E    G_5 D_5   
     e(  6 -  6) =     18.36144  eV     1   --> A_1  G_1 D_1   
     e(  7 -  7) =     20.48608  eV     1   --> B_2  G_4 D_2'  
     e(  8 -  8) =     25.53879  eV     1   --> A_1  G_1 D_1   
     e(  9 - 10) =     26.77937  eV     2   --> E    G_5 D_5   

 **************************************************************************

 **************************************************************************

                    xk=(   0.00000,   0.00000,   0.82500  )

     Band symmetry, C_4v (4mm)  point group:

     e(  1 -  1) =    -89.44033  eV     1   --> A_1  G_1 D_1   
     e(  2 -  2) =     -3.90565  eV     1   --> A_1  G_1 D_1   
     e(  3 -  3) =      2.91853  eV     1   --> A_1  G_1 D_1   
     e(  4 -  5) =      7.05536  eV     2   --> E    G_5 D_5   
     e(  6 -  6) =     18.29946  eV     1   --> A_1  G_1 D_1   
     e(  7 -  7) =     20.38676  eV     1   --> B_2  G_4 D_2'  
     e(  8 -  8) =     25.69381  eV     1   --> A_1  G_1 D_1   
     e(  9 - 10) =     26.84723  eV     2   --> E    G_5 D_5   

 **************************************************************************

 **************************************************************************

                    xk=(   0.00000,   0.00000,   0.85000  )

     Band symmetry, C_4v (4mm)  point group:

     e(  1 -  1) =    -89.44025  eV     1   --> A_1  G_1 D_1   
     e(  2 -  2) =     -3.71160  eV     1   --> A_1  G_1 D_1   
     e(  3 -  3) =      2.64978  eV     1   --> A_1  G_1 D_1   
     e(  4 -  5) =      7.00270  eV     2   --> E    G_5 D_5   
     e(  6 -  6) =     18.24701  eV     1   --> A_1  G_1 D_1   
     e(  7 -  7) =     20.30065  eV     1   --> B_2  G_4 D_2'  
     e(  8 -  8) =     25.83205  eV     1   --> A_1  G_1 D_1   
     e(  9 - 10) =     26.90830  eV     2   --> E    G_5 D_5   

 **************************************************************************

 **************************************************************************

                    xk=(   0.00000,   0.00000,   0.87500  )

     Band symmetry, C_4v (4mm)  point group:

     e(  1 -  1) =    -89.44019  eV     1   --> A_1  G_1 D_1   
     e(  2 -  2) =     -3.53170  eV     1   --> A_1  G_1 D_1   
     e(  3 -  3) =      2.40575  eV     1   --> A_1  G_1 D_1   
     e(  4 -  5) =      6.95787  eV     2   --> E    G_5 D_5   
     e(  6 -  6) =     18.20354  eV     1   --> A_1  G_1 D_1   
     e(  7 -  7) =     20.22777  eV     1   --> B_2  G_4 D_2'  
     e(  8 -  8) =     25.95198  eV     1   --> A_1  G_1 D_1   
     e(  9 - 10) =     26.96167  eV     2   --> E    G_5 D_5   

 **************************************************************************

 **************************************************************************

                    xk=(   0.00000,   0.00000,   0.90000  )

     Band symmetry, C_4v (4mm)  point group:

     e(  1 -  1) =    -89.44013  eV     1   --> A_1  G_1 D_1   
     e(  2 -  2) =     -3.37131  eV     1   --> A_1  G_1 D_1   
     e(  3 -  3) =      2.19227  eV     1   --> A_1  G_1 D_1   
     e(  4 -  5) =      6.92101  eV     2   --> E    G_5 D_5   
     e(  6 -  6) =     18.16860  eV     1   --> A_1  G_1 D_1   
     e(  7 -  7) =     20.16812  eV     1   --> B_2  G_4 D_2'  
     e(  8 -  8) =     26.05220  eV     1   --> A_1  G_1 D_1   
     e(  9 - 10) =     27.00652  eV     2   --> E    G_5 D_5   

 **************************************************************************

 **************************************************************************

                    xk=(   0.00000,   0.00000,   0.92500  )

     Band symmetry, C_4v (4mm)  point group:

     e(  1 -  1) =    -89.44009  eV     1   --> A_1  G_1 D_1   
     e(  2 -  2) =     -3.23658  eV     1   --> A_1  G_1 D_1   
     e(  3 -  3) =      2.01587  eV     1   --> A_1  G_1 D_1   
     e(  4 -  5) =      6.89223  eV     2   --> E    G_5 D_5   
     e(  6 -  6) =     18.14182  eV     1   --> A_1  G_1 D_1   
     e(  7 -  7) =     20.12172  eV     1   --> B_2  G_4 D_2'  
     e(  8 -  8) =     26.13149  eV     1   --> A_1  G_1 D_1   
     e(  9 - 10) =     27.04217  eV     2   --> E    G_5 D_5   

 **************************************************************************

 **************************************************************************

                    xk=(   0.00000,   0.00000,   0.95000  )

     Band symmetry, C_4v (4mm)  point group:

     e(  1 -  1) =    -89.44006  eV     1   --> A_1  G_1 D_1   
     e(  2 -  2) =     -3.13400  eV     1   --> A_1  G_1 D_1   
     e(  3 -  3) =      1.88331  eV     1   --> A_1  G_1 D_1   
     e(  4 -  5) =      6.87161  eV     2   --> E    G_5 D_5   
     e(  6 -  6) =     18.12290  eV     1   --> A_1  G_1 D_1   
     e(  7 -  7) =     20.08857  eV     1   --> B_2  G_4 D_2'  
     e(  8 -  8) =     26.18886  eV     1   --> A_1  G_1 D_1   
     e(  9 - 10) =     27.06805  eV     2   --> E    G_5 D_5   

 **************************************************************************

 **************************************************************************

                    xk=(   0.00000,   0.00000,   0.97500  )

     Band symmetry, C_4v (4mm)  point group:

     e(  1 -  1) =    -89.44004  eV     1   --> A_1  G_1 D_1   
     e(  2 -  2) =     -3.06954  eV     1   --> A_1  G_1 D_1   
     e(  3 -  3) =      1.80079  eV     1   --> A_1  G_1 D_1   
     e(  4 -  5) =      6.85921  eV     2   --> E    G_5 D_5   
     e(  6 -  6) =     18.11163  eV     1   --> A_1  G_1 D_1   
     e(  7 -  7) =     20.06868  eV     1   --> B_2  G_4 D_2'  
     e(  8 -  8) =     26.22359  eV     1   --> A_1  G_1 D_1   
     e(  9 - 10) =     27.08375  eV     2   --> E    G_5 D_5   

 **************************************************************************

 **************************************************************************

                    xk=(   0.00000,   0.00000,   1.00000  )

     point group D_4h(4/mmm)
     there are 10 classes
     the character table:

       E     2C4   C2    2C2'  2C2'' i     2S4   s_h   2s_v  2s_d 
A_1g   1.00  1.00  1.00  1.00  1.00  1.00  1.00  1.00  1.00  1.00
A_2g   1.00  1.00  1.00 -1.00 -1.00  1.00  1.00  1.00 -1.00 -1.00
B_1g   1.00 -1.00  1.00  1.00 -1.00  1.00 -1.00  1.00  1.00 -1.00
B_2g   1.00 -1.00  1.00 -1.00  1.00  1.00 -1.00  1.00 -1.00  1.00
E_g    2.00  0.00 -2.00  0.00  0.00  2.00  0.00 -2.00  0.00  0.00
A_1u   1.00  1.00  1.00  1.00  1.00 -1.00 -1.00 -1.00 -1.00 -1.00
A_2u   1.00  1.00  1.00 -1.00 -1.00 -1.00 -1.00 -1.00  1.00  1.00
B_1u   1.00 -1.00  1.00  1.00 -1.00 -1.00  1.00 -1.00 -1.00  1.00
B_2u   1.00 -1.00  1.00 -1.00  1.00 -1.00  1.00 -1.00  1.00 -1.00
E_u    2.00  0.00 -2.00  0.00  0.00 -2.00  0.00  2.00  0.00  0.00

     the symmetry operations in each class and the name of the first element:

     E        1
                                                                 
     2C4      7    8
                                                                 
     C2       2
                                                                 
     2C2'     3    4
                                                                 
     2C2''    5    6
                                                                 
     i        9
                                                                 
     2S4     15   16
                                                                 
     s_h     10
                                                                 
     2s_v    11   12
                                                                 
     2s_d    13   14
                                                                 

     Band symmetry, D_4h(4/mmm) point group:

     e(  1 -  1) =    -89.44003  eV     1   --> A_1g X_1  M_1  
     e(  2 -  2) =     -3.04752  eV     1   --> A_1g X_1  M_1  
     e(  3 -  3) =      1.77273  eV     1   --> A_2u X_4' M_4' 
     e(  4 -  5) =      6.85507  eV     2   --> E_u  X_5' M_5' 
     e(  6 -  6) =     18.10789  eV     1   --> A_1g X_1  M_1  
     e(  7 -  7) =     20.06205  eV     1   --> B_2g X_3  M_3  
     e(  8 -  8) =     26.23523  eV     1   --> A_2u X_4' M_4' 
     e(  9 - 10) =     27.08901  eV     2   --> E_u  X_5' M_5' 

 **************************************************************************

 **************************************************************************

                    xk=(  -0.01250,   0.00000,   1.00000  )

     point group C_2v (mm2) 
     there are  4 classes
     the character table:

       E     C2    s_v   s_v' 
A_1    1.00  1.00  1.00  1.00
A_2    1.00  1.00 -1.00 -1.00
B_1    1.00 -1.00  1.00 -1.00
B_2    1.00 -1.00 -1.00  1.00

     the symmetry operations in each class and the name of the first element:

     E        1
                                                                 
     C2       2
                                                                 
     s_v      4
                                                                 
     s_v'     3
                                                                 

     Band symmetry, C_2v (mm2)  point group:

     e(  1 -  1) =    -89.44003  eV     1   --> A_1  D_1  S_1  
     e(  2 -  2) =     -3.04760  eV     1   --> A_1  D_1  S_1  
     e(  3 -  3) =      1.77406  eV     1   --> B_1  D_3  S_3  
     e(  4 -  4) =      6.85177  eV     1   --> B_2  D_4  S_4  
     e(  5 -  5) =      6.85509  eV     1   --> A_1  D_1  S_1  
     e(  6 -  6) =     18.11034  eV     1   --> A_1  D_1  S_1  
     e(  7 -  7) =     20.06700  eV     1   --> B_2  D_4  S_4  
     e(  8 -  8) =     26.23398  eV     1   --> B_1  D_3  S_3  
     e(  9 -  9) =     27.08323  eV     1   --> A_1  D_1  S_1  
     e( 10 - 10) =     27.09126  eV     1   --> B_2  D_4  S_4  

 **************************************************************************

 **************************************************************************

                    xk=(  -0.02500,   0.00000,   1.00000  )

     Band symmetry, C_2v (mm2)  point group:

     e(  1 -  1) =    -89.44003  eV     1   --> A_1  D_1  S_1  
     e(  2 -  2) =     -3.04784  eV     1   --> A_1  D_1  S_1  
     e(  3 -  3) =      1.77804  eV     1   --> B_1  D_3  S_3  
     e(  4 -  4) =      6.84188  eV     1   --> B_2  D_4  S_4  
     e(  5 -  5) =      6.85514  eV     1   --> A_1  D_1  S_1  
     e(  6 -  6) =     18.11766  eV     1   --> A_1  D_1  S_1  
     e(  7 -  7) =     20.08184  eV     1   --> B_2  D_4  S_4  
     e(  8 -  8) =     26.23024  eV     1   --> B_1  D_3  S_3  
     e(  9 -  9) =     27.06594  eV     1   --> A_1  D_1  S_1  
     e( 10 - 10) =     27.09804  eV     1   --> B_2  D_4  S_4  

 **************************************************************************

 **************************************************************************

                    xk=(  -0.03750,  -0.00000,   1.00000  )

     Band symmetry, C_2v (mm2)  point group:

     e(  1 -  1) =    -89.44003  eV     1   --> A_1  D_1  S_1  
     e(  2 -  2) =     -3.04823  eV     1   --> A_1  D_1  S_1  
     e(  3 -  3) =      1.78468  eV     1   --> B_1  D_3  S_3  
     e(  4 -  4) =      6.82547  eV     1   --> B_2  D_4  S_4  
     e(  5 -  5) =      6.85523  eV     1   --> A_1  D_1  S_1  
     e(  6 -  6) =     18.12988  eV     1   --> A_1  D_1  S_1  
     e(  7 -  7) =     20.10649  eV     1   --> B_2  D_4  S_4  
     e(  8 -  8) =     26.22402  eV     1   --> B_1  D_3  S_3  
     e(  9 -  9) =     27.03726  eV     1   --> A_1  D_1  S_1  
     e( 10 - 10) =     27.10936  eV     1   --> B_2  D_4  S_4  

 **************************************************************************

 **************************************************************************

                    xk=(  -0.05000,  -0.00000,   1.00000  )

     Band symmetry, C_2v (mm2)  point group:

     e(  1 -  1) =    -89.44003  eV     1   --> A_1  D_1  S_1  
     e(  2 -  2) =     -3.04877  eV     1   --> A_1  D_1  S_1  
     e(  3 -  3) =      1.79396  eV     1   --> B_1  D_3  S_3  
     e(  4 -  4) =      6.80262  eV     1   --> B_2  D_4  S_4  
     e(  5 -  5) =      6.85535  eV     1   --> A_1  D_1  S_1  
     e(  6 -  6) =     18.14697  eV     1   --> A_1  D_1  S_1  
     e(  7 -  7) =     20.14079  eV     1   --> B_2  D_4  S_4  
     e(  8 -  8) =     26.21532  eV     1   --> B_1  D_3  S_3  
     e(  9 -  9) =     26.99734  eV     1   --> A_1  D_1  S_1  
     e( 10 - 10) =     27.12526  eV     1   --> B_2  D_4  S_4  

 **************************************************************************

 **************************************************************************

                    xk=(  -0.06250,   0.00000,   1.00000  )

     Band symmetry, C_2v (mm2)  point group:

     e(  1 -  1) =    -89.44003  eV     1   --> A_1  D_1  S_1  
     e(  2 -  2) =     -3.04947  eV     1   --> A_1  D_1  S_1  
     e(  3 -  3) =      1.80590  eV     1   --> B_1  D_3  S_3  
     e(  4 -  4) =      6.77348  eV     1   --> B_2  D_4  S_4  
     e(  5 -  5) =      6.85551  eV     1   --> A_1  D_1  S_1  
     e(  6 -  6) =     18.16892  eV     1   --> A_1  D_1  S_1  
     e(  7 -  7) =     20.18456  eV     1   --> B_2  D_4  S_4  
     e(  8 -  8) =     26.20414  eV     1   --> B_1  D_3  S_3  
     e(  9 -  9) =     26.94646  eV     1   --> A_1  D_1  S_1  
     e( 10 - 10) =     27.14578  eV     1   --> B_2  D_4  S_4  

 **************************************************************************

 **************************************************************************

                    xk=(  -0.07500,   0.00000,   1.00000  )

     Band symmetry, C_2v (mm2)  point group:

     e(  1 -  1) =    -89.44003  eV     1   --> A_1  D_1  S_1  
     e(  2 -  2) =     -3.05031  eV     1   --> A_1  D_1  S_1  
     e(  3 -  3) =      1.82047  eV     1   --> B_1  D_3  S_3  
     e(  4 -  4) =      6.73822  eV     1   --> B_2  D_4  S_4  
     e(  5 -  5) =      6.85569  eV     1   --> A_1  D_1  S_1  
     e(  6 -  6) =     18.19572  eV     1   --> A_1  D_1  S_1  
     e(  7 -  7) =     20.23756  eV     1   --> B_2  D_4  S_4  
     e(  8 -  8) =     26.19049  eV     1   --> B_1  D_3  S_3  
     e(  9 -  9) =     26.88490  eV     1   --> A_1  D_1  S_1  
     e( 10 - 10) =     27.17100  eV     1   --> B_2  D_4  S_4  

 **************************************************************************

 **************************************************************************

                    xk=(  -0.08750,   0.00000,   1.00000  )

     Band symmetry, C_2v (mm2)  point group:

     e(  1 -  1) =    -89.44003  eV     1   --> A_1  D_1  S_1  
     e(  2 -  2) =     -3.05130  eV     1   --> A_1  D_1  S_1  
     e(  3 -  3) =      1.83768  eV     1   --> B_1  D_3  S_3  
     e(  4 -  4) =      6.69703  eV     1   --> B_2  D_4  S_4  
     e(  5 -  5) =      6.85591  eV     1   --> A_1  D_1  S_1  
     e(  6 -  6) =     18.22736  eV     1   --> A_1  D_1  S_1  
     e(  7 -  7) =     20.29951  eV     1   --> B_2  D_4  S_4  
     e(  8 -  8) =     26.17438  eV     1   --> B_1  D_3  S_3  
     e(  9 -  9) =     26.81304  eV     1   --> A_1  D_1  S_1  
     e( 10 - 10) =     27.20100  eV     1   --> B_2  D_4  S_4  

 **************************************************************************

 **************************************************************************

                    xk=(  -0.10000,  -0.00000,   1.00000  )

     Band symmetry, C_2v (mm2)  point group:

     e(  1 -  1) =    -89.44003  eV     1   --> A_1  D_1  S_1  
     e(  2 -  2) =     -3.05241  eV     1   --> A_1  D_1  S_1  
     e(  3 -  3) =      1.85752  eV     1   --> B_1  D_3  S_3  
     e(  4 -  4) =      6.65014  eV     1   --> B_2  D_4  S_4  
     e(  5 -  5) =      6.85616  eV     1   --> A_1  D_1  S_1  
     e(  6 -  6) =     18.26382  eV     1   --> A_1  D_1  S_1  
     e(  7 -  7) =     20.37006  eV     1   --> B_2  D_4  S_4  
     e(  8 -  8) =     26.15583  eV     1   --> B_1  D_3  S_3  
     e(  9 -  9) =     26.73130  eV     1   --> A_1  D_1  S_1  
     e( 10 - 10) =     27.23586  eV     1   --> B_2  D_4  S_4  

 **************************************************************************

 **************************************************************************

                    xk=(  -0.11250,  -0.00000,   1.00000  )

     Band symmetry, C_2v (mm2)  point group:

     e(  1 -  1) =    -89.44003  eV     1   --> A_1  D_1  S_1  
     e(  2 -  2) =     -3.05366  eV     1   --> A_1  D_1  S_1  
     e(  3 -  3) =      1.87999  eV     1   --> B_1  D_3  S_3  
     e(  4 -  4) =      6.59779  eV     1   --> B_2  D_4  S_4  
     e(  5 -  5) =      6.85644  eV     1   --> A_1  D_1  S_1  
     e(  6 -  6) =     18.30507  eV     1   --> A_1  D_1  S_1  
     e(  7 -  7) =     20.44884  eV     1   --> B_2  D_4  S_4  
     e(  8 -  8) =     26.13483  eV     1   --> B_1  D_3  S_3  
     e(  9 -  9) =     26.64011  eV     1   --> A_1  D_1  S_1  
     e( 10 - 10) =     27.27571  eV     1   --> B_2  D_4  S_4  

 **************************************************************************

 **************************************************************************

                    xk=(  -0.12500,   0.00000,   1.00000  )

     Band symmetry, C_2v (mm2)  point group:

     e(  1 -  1) =    -89.44003  eV     1   --> A_1  D_1  S_1  
     e(  2 -  2) =     -3.05502  eV     1   --> A_1  D_1  S_1  
     e(  3 -  3) =      1.90507  eV     1   --> B_1  D_3  S_3  
     e(  4 -  4) =      6.54026  eV     1   --> B_2  D_4  S_4  
     e(  5 -  5) =      6.85674  eV     1   --> A_1  D_1  S_1  
     e(  6 -  6) =     18.35108  eV     1   --> A_1  D_1  S_1  
     e(  7 -  7) =     20.53544  eV     1   --> B_2  D_4  S_4  
     e(  8 -  8) =     26.11141  eV     1   --> B_1  D_3  S_3  
     e(  9 -  9) =     26.53997  eV     1   --> A_1  D_1  S_1  
     e( 10 - 10) =     27.32066  eV     1   --> B_2  D_4  S_4  

 **************************************************************************

 **************************************************************************

                    xk=(  -0.13750,   0.00000,   1.00000  )

     Band symmetry, C_2v (mm2)  point group:

     e(  1 -  1) =    -89.44003  eV     1   --> A_1  D_1  S_1  
     e(  2 -  2) =     -3.05650  eV     1   --> A_1  D_1  S_1  
     e(  3 -  3) =      1.93275  eV     1   --> B_1  D_3  S_3  
     e(  4 -  4) =      6.47783  eV     1   --> B_2  D_4  S_4  
     e(  5 -  5) =      6.85707  eV     1   --> A_1  D_1  S_1  
     e(  6 -  6) =     18.40183  eV     1   --> A_1  D_1  S_1  
     e(  7 -  7) =     20.62943  eV     1   --> B_2  D_4  S_4  
     e(  8 -  8) =     26.08557  eV     1   --> B_1  D_3  S_3  
     e(  9 -  9) =     26.43138  eV     1   --> A_1  D_1  S_1  
     e( 10 - 10) =     27.37086  eV     1   --> B_2  D_4  S_4  

 **************************************************************************

 **************************************************************************

                    xk=(  -0.15000,   0.00000,   1.00000  )

     Band symmetry, C_2v (mm2)  point group:

     e(  1 -  1) =    -89.44003  eV     1   --> A_1  D_1  S_1  
     e(  2 -  2) =     -3.05807  eV     1   --> A_1  D_1  S_1  
     e(  3 -  3) =      1.96302  eV     1   --> B_1  D_3  S_3  
     e(  4 -  4) =      6.41080  eV     1   --> B_2  D_4  S_4  
     e(  5 -  5) =      6.85742  eV     1   --> A_1  D_1  S_1  
     e(  6 -  6) =     18.45729  eV     1   --> A_1  D_1  S_1  
     e(  7 -  7) =     20.73031  eV     1   --> B_2  D_4  S_4  
     e(  8 -  8) =     26.05734  eV     1   --> B_1  D_3  S_3  
     e(  9 -  9) =     26.31488  eV     1   --> A_1  D_1  S_1  
     e( 10 - 10) =     27.42647  eV     1   --> B_2  D_4  S_4  

 **************************************************************************

 **************************************************************************

                    xk=(  -0.16250,  -0.00000,   1.00000  )

     Band symmetry, C_2v (mm2)  point group:

     e(  1 -  1) =    -89.44003  eV     1   --> A_1  D_1  S_1  
     e(  2 -  2) =     -3.05974  eV     1   --> A_1  D_1  S_1  
     e(  3 -  3) =      1.99588  eV     1   --> B_1  D_3  S_3  
     e(  4 -  4) =      6.33947  eV     1   --> B_2  D_4  S_4  
     e(  5 -  5) =      6.85778  eV     1   --> A_1  D_1  S_1  
     e(  6 -  6) =     18.51742  eV     1   --> A_1  D_1  S_1  
     e(  7 -  7) =     20.83761  eV     1   --> B_2  D_4  S_4  
     e(  8 -  8) =     26.02672  eV     1   --> B_1  D_3  S_3  
     e(  9 -  9) =     26.19098  eV     1   --> A_1  D_1  S_1  
     e( 10 - 10) =     27.48766  eV     1   --> B_2  D_4  S_4  

 **************************************************************************

 **************************************************************************

                    xk=(  -0.17500,  -0.00000,   1.00000  )

     Band symmetry, C_2v (mm2)  point group:

     e(  1 -  1) =    -89.44003  eV     1   --> A_1  D_1  S_1  
     e(  2 -  2) =     -3.06149  eV     1   --> A_1  D_1  S_1  
     e(  3 -  3) =      2.03131  eV     1   --> B_1  D_3  S_3  
     e(  4 -  4) =      6.26414  eV     1   --> B_2  D_4  S_4  
     e(  5 -  5) =      6.85817  eV     1   --> A_1  D_1  S_1  
     e(  6 -  6) =     18.58217  eV     1   --> A_1  D_1  S_1  
     e(  7 -  7) =     20.95079  eV     1   --> B_2  D_4  S_4  
     e(  8 -  8) =     25.99371  eV     1   --> B_1  D_3  S_3  
     e(  9 -  9) =     26.06024  eV     1   --> A_1  D_1  S_1  
     e( 10 - 10) =     27.55462  eV     1   --> B_2  D_4  S_4  

 **************************************************************************

 **************************************************************************

                    xk=(  -0.18750,   0.00000,   1.00000  )

     Band symmetry, C_2v (mm2)  point group:

     e(  1 -  1) =    -89.44003  eV     1   --> A_1  D_1  S_1  
     e(  2 -  2) =     -3.06331  eV     1   --> A_1  D_1  S_1  
     e(  3 -  3) =      2.06928  eV     1   --> B_1  D_3  S_3  
     e(  4 -  4) =      6.18514  eV     1   --> B_2  D_4  S_4  
     e(  5 -  5) =      6.85857  eV     1   --> A_1  D_1  S_1  
     e(  6 -  6) =     18.65153  eV     1   --> A_1  D_1  S_1  
     e(  7 -  7) =     21.06932  eV     1   --> B_2  D_4  S_4  
     e(  8 -  8) =     25.92320  eV     1   --> A_1  D_1  S_1  
     e(  9 -  9) =     25.95835  eV     1   --> B_1  D_3  S_3  
     e( 10 - 10) =     27.62755  eV     1   --> B_2  D_4  S_4  

 **************************************************************************

 **************************************************************************

                    xk=(  -0.20000,   0.00000,   1.00000  )

     Band symmetry, C_2v (mm2)  point group:

     e(  1 -  1) =    -89.44003  eV     1   --> A_1  D_1  S_1  
     e(  2 -  2) =     -3.06519  eV     1   --> A_1  D_1  S_1  
     e(  3 -  3) =      2.10980  eV     1   --> B_1  D_3  S_3  
     e(  4 -  4) =      6.10276  eV     1   --> B_2  D_4  S_4  
     e(  5 -  5) =      6.85898  eV     1   --> A_1  D_1  S_1  
     e(  6 -  6) =     18.72543  eV     1   --> A_1  D_1  S_1  
     e(  7 -  7) =     21.19264  eV     1   --> B_2  D_4  S_4  
     e(  8 -  8) =     25.78039  eV     1   --> A_1  D_1  S_1  
     e(  9 -  9) =     25.92064  eV     1   --> B_1  D_3  S_3  
     e( 10 - 10) =     27.70667  eV     1   --> B_2  D_4  S_4  

 **************************************************************************

 **************************************************************************

                    xk=(  -0.21250,   0.00000,   1.00000  )

     Band symmetry, C_2v (mm2)  point group:

     e(  1 -  1) =    -89.44003  eV     1   --> A_1  D_1  S_1  
     e(  2 -  2) =     -3.06712  eV     1   --> A_1  D_1  S_1  
     e(  3 -  3) =      2.15283  eV     1   --> B_1  D_3  S_3  
     e(  4 -  4) =      6.01731  eV     1   --> B_2  D_4  S_4  
     e(  5 -  5) =      6.85940  eV     1   --> A_1  D_1  S_1  
     e(  6 -  6) =     18.80383  eV     1   --> A_1  D_1  S_1  
     e(  7 -  7) =     21.32020  eV     1   --> B_2  D_4  S_4  
     e(  8 -  8) =     25.63233  eV     1   --> A_1  D_1  S_1  
     e(  9 -  9) =     25.88059  eV     1   --> B_1  D_3  S_3  
     e( 10 - 10) =     27.79222  eV     1   --> B_2  D_4  S_4  

 **************************************************************************

 **************************************************************************

                    xk=(  -0.22500,  -0.00000,   1.00000  )

     Band symmetry, C_2v (mm2)  point group:

     e(  1 -  1) =    -89.44003  eV     1   --> A_1  D_1  S_1  
     e(  2 -  2) =     -3.06908  eV     1   --> A_1  D_1  S_1  
     e(  3 -  3) =      2.19837  eV     1   --> B_1  D_3  S_3  
     e(  4 -  4) =      5.92910  eV     1   --> B_2  D_4  S_4  
     e(  5 -  5) =      6.85983  eV     1   --> A_1  D_1  S_1  
     e(  6 -  6) =     18.88668  eV     1   --> A_1  D_1  S_1  
     e(  7 -  7) =     21.45142  eV     1   --> B_2  D_4  S_4  
     e(  8 -  8) =     25.47954  eV     1   --> A_1  D_1  S_1  
     e(  9 -  9) =     25.83821  eV     1   --> B_1  D_3  S_3  
     e( 10 - 10) =     27.88442  eV     1   --> B_2  D_4  S_4  

 **************************************************************************

 **************************************************************************

                    xk=(  -0.23750,  -0.00000,   1.00000  )

     Band symmetry, C_2v (mm2)  point group:

     e(  1 -  1) =    -89.44003  eV     1   --> A_1  D_1  S_1  
     e(  2 -  2) =     -3.07106  eV     1   --> A_1  D_1  S_1  
     e(  3 -  3) =      2.24638  eV     1   --> B_1  D_3  S_3  
     e(  4 -  4) =      5.83840  eV     1   --> B_2  D_4  S_4  
     e(  5 -  5) =      6.86026  eV     1   --> A_1  D_1  S_1  
     e(  6 -  6) =     18.97392  eV     1   --> A_1  D_1  S_1  
     e(  7 -  7) =     21.58573  eV     1   --> B_2  D_4  S_4  
     e(  8 -  8) =     25.32252  eV     1   --> A_1  D_1  S_1  
     e(  9 -  9) =     25.79349  eV     1   --> B_1  D_3  S_3  
     e( 10 - 10) =     27.98354  eV     1   --> B_2  D_4  S_4  

 **************************************************************************

 **************************************************************************

                    xk=(  -0.25000,   0.00000,   1.00000  )

     Band symmetry, C_2v (mm2)  point group:

     e(  1 -  1) =    -89.44003  eV     1   --> A_1  D_1  S_1  
     e(  2 -  2) =     -3.07306  eV     1   --> A_1  D_1  S_1  
     e(  3 -  3) =      2.29686  eV     1   --> B_1  D_3  S_3  
     e(  4 -  4) =      5.74551  eV     1   --> B_2  D_4  S_4  
     e(  5 -  5) =      6.86070  eV     1   --> A_1  D_1  S_1  
     e(  6 -  6) =     19.06549  eV     1   --> A_1  D_1  S_1  
     e(  7 -  7) =     21.72254  eV     1   --> B_2  D_4  S_4  
     e(  8 -  8) =     25.16174  eV     1   --> A_1  D_1  S_1  
     e(  9 -  9) =     25.74646  eV     1   --> B_1  D_3  S_3  
     e( 10 - 10) =     28.08981  eV     1   --> B_2  D_4  S_4  

 **************************************************************************

 **************************************************************************

                    xk=(  -0.26250,   0.00000,   1.00000  )

     Band symmetry, C_2v (mm2)  point group:

     e(  1 -  1) =    -89.44003  eV     1   --> A_1  D_1  S_1  
     e(  2 -  2) =     -3.07505  eV     1   --> A_1  D_1  S_1  
     e(  3 -  3) =      2.34977  eV     1   --> B_1  D_3  S_3  
     e(  4 -  4) =      5.65071  eV     1   --> B_2  D_4  S_4  
     e(  5 -  5) =      6.86113  eV     1   --> A_1  D_1  S_1  
     e(  6 -  6) =     19.16134  eV     1   --> A_1  D_1  S_1  
     e(  7 -  7) =     21.86130  eV     1   --> B_2  D_4  S_4  
     e(  8 -  8) =     24.99767  eV     1   --> A_1  D_1  S_1  
     e(  9 -  9) =     25.69711  eV     1   --> B_1  D_3  S_3  
     e( 10 - 10) =     28.20351  eV     1   --> B_2  D_4  S_4  

 **************************************************************************

 **************************************************************************

                    xk=(  -0.27500,   0.00000,   1.00000  )

     Band symmetry, C_2v (mm2)  point group:

     e(  1 -  1) =    -89.44003  eV     1   --> A_1  D_1  S_1  
     e(  2 -  2) =     -3.07703  eV     1   --> A_1  D_1  S_1  
     e(  3 -  3) =      2.40509  eV     1   --> B_1  D_3  S_3  
     e(  4 -  4) =      5.55425  eV     1   --> B_2  D_4  S_4  
     e(  5 -  5) =      6.86156  eV     1   --> A_1  D_1  S_1  
     e(  6 -  6) =     19.26140  eV     1   --> A_1  D_1  S_1  
     e(  7 -  7) =     22.00145  eV     1   --> B_2  D_4  S_4  
     e(  8 -  8) =     24.83077  eV     1   --> A_1  D_1  S_1  
     e(  9 -  9) =     25.64542  eV     1   --> B_1  D_3  S_3  
     e( 10 - 10) =     28.32489  eV     1   --> B_2  D_4  S_4  

 **************************************************************************

 **************************************************************************

                    xk=(  -0.28750,  -0.00000,   1.00000  )

     Band symmetry, C_2v (mm2)  point group:

     e(  1 -  1) =    -89.44003  eV     1   --> A_1  D_1  S_1  
     e(  2 -  2) =     -3.07899  eV     1   --> A_1  D_1  S_1  
     e(  3 -  3) =      2.46279  eV     1   --> B_1  D_3  S_3  
     e(  4 -  4) =      5.45638  eV     1   --> B_2  D_4  S_4  
     e(  5 -  5) =      6.86198  eV     1   --> A_1  D_1  S_1  
     e(  6 -  6) =     19.36558  eV     1   --> A_1  D_1  S_1  
     e(  7 -  7) =     22.14243  eV     1   --> B_2  D_4  S_4  
     e(  8 -  8) =     24.66144  eV     1   --> A_1  D_1  S_1  
     e(  9 -  9) =     25.59141  eV     1   --> B_1  D_3  S_3  
     e( 10 - 10) =     28.45419  eV     1   --> B_2  D_4  S_4  

 **************************************************************************

 **************************************************************************

                    xk=(  -0.30000,   0.00000,   1.00000  )

     Band symmetry, C_2v (mm2)  point group:

     e(  1 -  1) =    -89.44003  eV     1   --> A_1  D_1  S_1  
     e(  2 -  2) =     -3.08090  eV     1   --> A_1  D_1  S_1  
     e(  3 -  3) =      2.52285  eV     1   --> B_1  D_3  S_3  
     e(  4 -  4) =      5.35736  eV     1   --> B_2  D_4  S_4  
     e(  5 -  5) =      6.86240  eV     1   --> A_1  D_1  S_1  
     e(  6 -  6) =     19.47383  eV     1   --> A_1  D_1  S_1  
     e(  7 -  7) =     22.28372  eV     1   --> B_2  D_4  S_4  
     e(  8 -  8) =     24.49011  eV     1   --> A_1  D_1  S_1  
     e(  9 -  9) =     25.53505  eV     1   --> B_1  D_3  S_3  
     e( 10 - 10) =     28.59167  eV     1   --> B_2  D_4  S_4  

 **************************************************************************

 **************************************************************************

                    xk=(  -0.31250,   0.00000,   1.00000  )

     Band symmetry, C_2v (mm2)  point group:

     e(  1 -  1) =    -89.44003  eV     1   --> A_1  D_1  S_1  
     e(  2 -  2) =     -3.08277  eV     1   --> A_1  D_1  S_1  
     e(  3 -  3) =      2.58523  eV     1   --> B_1  D_3  S_3  
     e(  4 -  4) =      5.25741  eV     1   --> B_2  D_4  S_4  
     e(  5 -  5) =      6.86280  eV     1   --> A_1  D_1  S_1  
     e(  6 -  6) =     19.58605  eV     1   --> A_1  D_1  S_1  
     e(  7 -  7) =     22.42482  eV     1   --> B_2  D_4  S_4  
     e(  8 -  8) =     24.31717  eV     1   --> A_1  D_1  S_1  
     e(  9 -  9) =     25.47634  eV     1   --> B_1  D_3  S_3  
     e( 10 - 10) =     28.73754  eV     1   --> B_2  D_4  S_4  

 **************************************************************************

 **************************************************************************

                    xk=(  -0.32500,   0.00000,   1.00000  )

     Band symmetry, C_2v (mm2)  point group:

     e(  1 -  1) =    -89.44003  eV     1   --> A_1  D_1  S_1  
     e(  2 -  2) =     -3.08457  eV     1   --> A_1  D_1  S_1  
     e(  3 -  3) =      2.64990  eV     1   --> B_1  D_3  S_3  
     e(  4 -  4) =      5.15674  eV     1   --> B_2  D_4  S_4  
     e(  5 -  5) =      6.86318  eV     1   --> A_1  D_1  S_1  
     e(  6 -  6) =     19.70215  eV     1   --> A_1  D_1  S_1  
     e(  7 -  7) =     22.56525  eV     1   --> B_2  D_4  S_4  
     e(  8 -  8) =     24.14299  eV     1   --> A_1  D_1  S_1  
     e(  9 -  9) =     25.41525  eV     1   --> B_1  D_3  S_3  
     e( 10 - 10) =     28.89201  eV     1   --> B_2  D_4  S_4  

 **************************************************************************

 **************************************************************************

                    xk=(  -0.33750,   0.00000,   1.00000  )

     Band symmetry, C_2v (mm2)  point group:

     e(  1 -  1) =    -89.44003  eV     1   --> A_1  D_1  S_1  
     e(  2 -  2) =     -3.08631  eV     1   --> A_1  D_1  S_1  
     e(  3 -  3) =      2.71683  eV     1   --> B_1  D_3  S_3  
     e(  4 -  4) =      5.05558  eV     1   --> B_2  D_4  S_4  
     e(  5 -  5) =      6.86355  eV     1   --> A_1  D_1  S_1  
     e(  6 -  6) =     19.82204  eV     1   --> A_1  D_1  S_1  
     e(  7 -  7) =     22.70456  eV     1   --> B_2  D_4  S_4  
     e(  8 -  8) =     23.96794  eV     1   --> A_1  D_1  S_1  
     e(  9 -  9) =     25.35175  eV     1   --> B_1  D_3  S_3  
     e( 10 - 10) =     29.05527  eV     1   --> B_2  D_4  S_4  

 **************************************************************************

 **************************************************************************

                    xk=(  -0.35000,  -0.00000,   1.00000  )

     Band symmetry, C_2v (mm2)  point group:

     e(  1 -  1) =    -89.44003  eV     1   --> A_1  D_1  S_1  
     e(  2 -  2) =     -3.08796  eV     1   --> A_1  D_1  S_1  
     e(  3 -  3) =      2.78598  eV     1   --> B_1  D_3  S_3  
     e(  4 -  4) =      4.95411  eV     1   --> B_2  D_4  S_4  
     e(  5 -  5) =      6.86391  eV     1   --> A_1  D_1  S_1  
     e(  6 -  6) =     19.94562  eV     1   --> A_1  D_1  S_1  
     e(  7 -  7) =     22.84234  eV     1   --> B_2  D_4  S_4  
     e(  8 -  8) =     23.79236  eV     1   --> A_1  D_1  S_1  
     e(  9 -  9) =     25.28582  eV     1   --> B_1  D_3  S_3  
     e( 10 - 10) =     29.22747  eV     1   --> B_2  D_4  S_4  

 **************************************************************************

 **************************************************************************

                    xk=(  -0.36250,   0.00000,   1.00000  )

     Band symmetry, C_2v (mm2)  point group:

     e(  1 -  1) =    -89.44003  eV     1   --> A_1  D_1  S_1  
     e(  2 -  2) =     -3.08952  eV     1   --> A_1  D_1  S_1  
     e(  3 -  3) =      2.85730  eV     1   --> B_1  D_3  S_3  
     e(  4 -  4) =      4.85252  eV     1   --> B_2  D_4  S_4  
     e(  5 -  5) =      6.86424  eV     1   --> A_1  D_1  S_1  
     e(  6 -  6) =     20.07276  eV     1   --> A_1  D_1  S_1  
     e(  7 -  7) =     22.97824  eV     1   --> B_2  D_4  S_4  
     e(  8 -  8) =     23.61660  eV     1   --> A_1  D_1  S_1  
     e(  9 -  9) =     25.21741  eV     1   --> B_1  D_3  S_3  
     e( 10 - 10) =     29.40874  eV     1   --> B_2  D_4  S_4  

 **************************************************************************

 **************************************************************************

                    xk=(  -0.37500,   0.00000,   1.00000  )

     Band symmetry, C_2v (mm2)  point group:

     e(  1 -  1) =    -89.44003  eV     1   --> A_1  D_1  S_1  
     e(  2 -  2) =     -3.09097  eV     1   --> A_1  D_1  S_1  
     e(  3 -  3) =      2.93076  eV     1   --> B_1  D_3  S_3  
     e(  4 -  4) =      4.75099  eV     1   --> B_2  D_4  S_4  
     e(  5 -  5) =      6.86455  eV     1   --> A_1  D_1  S_1  
     e(  6 -  6) =     20.20333  eV     1   --> A_1  D_1  S_1  
     e(  7 -  7) =     23.11192  eV     1   --> B_2  D_4  S_4  
     e(  8 -  8) =     23.44099  eV     1   --> A_1  D_1  S_1  
     e(  9 -  9) =     25.14649  eV     1   --> B_1  D_3  S_3  
     e( 10 - 10) =     29.59915  eV     1   --> B_2  D_4  S_4  

 **************************************************************************

 **************************************************************************

                    xk=(  -0.38750,   0.00000,   1.00000  )

     Band symmetry, C_2v (mm2)  point group:

     e(  1 -  1) =    -89.44003  eV     1   --> A_1  D_1  S_1  
     e(  2 -  2) =     -3.09232  eV     1   --> A_1  D_1  S_1  
     e(  3 -  3) =      3.00632  eV     1   --> B_1  D_3  S_3  
     e(  4 -  4) =      4.64969  eV     1   --> B_2  D_4  S_4  
     e(  5 -  5) =      6.86484  eV     1   --> A_1  D_1  S_1  
     e(  6 -  6) =     20.33716  eV     1   --> A_1  D_1  S_1  
     e(  7 -  7) =     23.24311  eV     1   --> B_2  D_4  S_4  
     e(  8 -  8) =     23.26588  eV     1   --> A_1  D_1  S_1  
     e(  9 -  9) =     25.07300  eV     1   --> B_1  D_3  S_3  
     e( 10 - 10) =     29.79878  eV     1   --> B_2  D_4  S_4  

 **************************************************************************

 **************************************************************************

                    xk=(  -0.40000,   0.00000,   1.00000  )

     Band symmetry, C_2v (mm2)  point group:

     e(  1 -  1) =    -89.44003  eV     1   --> A_1  D_1  S_1  
     e(  2 -  2) =     -3.09355  eV     1   --> A_1  D_1  S_1  
     e(  3 -  3) =      3.08391  eV     1   --> B_1  D_3  S_3  
     e(  4 -  4) =      4.54877  eV     1   --> B_2  D_4  S_4  
     e(  5 -  5) =      6.86510  eV     1   --> A_1  D_1  S_1  
     e(  6 -  6) =     20.47406  eV     1   --> A_1  D_1  S_1  
     e(  7 -  7) =     23.09161  eV     1   --> A_1  D_1  S_1  
     e(  8 -  8) =     23.37156  eV     1   --> B_2  D_4  S_4  
     e(  9 -  9) =     24.99689  eV     1   --> B_1  D_3  S_3  
     e( 10 - 10) =     30.00762  eV     1   --> B_2  D_4  S_4  

 **************************************************************************

 **************************************************************************

                    xk=(  -0.41250,  -0.00000,   1.00000  )

     Band symmetry, C_2v (mm2)  point group:

     e(  1 -  1) =    -89.44003  eV     1   --> A_1  D_1  S_1  
     e(  2 -  2) =     -3.09465  eV     1   --> A_1  D_1  S_1  
     e(  3 -  3) =      3.16350  eV     1   --> B_1  D_3  S_3  
     e(  4 -  4) =      4.44838  eV     1   --> B_2  D_4  S_4  
     e(  5 -  5) =      6.86533  eV     1   --> A_1  D_1  S_1  
     e(  6 -  6) =     20.61378  eV     1   --> A_1  D_1  S_1  
     e(  7 -  7) =     22.91860  eV     1   --> A_1  D_1  S_1  
     e(  8 -  8) =     23.49708  eV     1   --> B_2  D_4  S_4  
     e(  9 -  9) =     24.91810  eV     1   --> B_1  D_3  S_3  
     e( 10 - 10) =     30.22566  eV     1   --> B_2  D_4  S_4  

 **************************************************************************

 **************************************************************************

                    xk=(  -0.42500,   0.00000,   1.00000  )

     Band symmetry, C_2v (mm2)  point group:

     e(  1 -  1) =    -89.44003  eV     1   --> A_1  D_1  S_1  
     e(  2 -  2) =     -3.09561  eV     1   --> A_1  D_1  S_1  
     e(  3 -  3) =      3.24502  eV     1   --> B_1  D_3  S_3  
     e(  4 -  4) =      4.34866  eV     1   --> B_2  D_4  S_4  
     e(  5 -  5) =      6.86554  eV     1   --> A_1  D_1  S_1  
     e(  6 -  6) =     20.75597  eV     1   --> A_1  D_1  S_1  
     e(  7 -  7) =     22.74732  eV     1   --> A_1  D_1  S_1  
     e(  8 -  8) =     23.61952  eV     1   --> B_2  D_4  S_4  
     e(  9 -  9) =     24.83656  eV     1   --> B_1  D_3  S_3  
     e( 10 - 10) =     30.45283  eV     1   --> B_2  D_4  S_4  

 **************************************************************************

 **************************************************************************

                    xk=(  -0.43750,   0.00000,   1.00000  )

     Band symmetry, C_2v (mm2)  point group:

     e(  1 -  1) =    -89.44003  eV     1   --> A_1  D_1  S_1  
     e(  2 -  2) =     -3.09644  eV     1   --> A_1  D_1  S_1  
     e(  3 -  3) =      3.32841  eV     1   --> B_1  D_3  S_3  
     e(  4 -  4) =      4.24974  eV     1   --> B_2  D_4  S_4  
     e(  5 -  5) =      6.86571  eV     1   --> A_1  D_1  S_1  
     e(  6 -  6) =     20.90006  eV     1   --> A_1  D_1  S_1  
     e(  7 -  7) =     22.57843  eV     1   --> A_1  D_1  S_1  
     e(  8 -  8) =     23.73877  eV     1   --> B_2  D_4  S_4  
     e(  9 -  9) =     24.75221  eV     1   --> B_1  D_3  S_3  
     e( 10 - 10) =     30.68903  eV     1   --> B_2  D_4  S_4  

 **************************************************************************

 **************************************************************************

                    xk=(  -0.45000,   0.00000,   1.00000  )

     Band symmetry, C_2v (mm2)  point group:

     e(  1 -  1) =    -89.44003  eV     1   --> A_1  D_1  S_1  
     e(  2 -  2) =     -3.09713  eV     1   --> A_1  D_1  S_1  
     e(  3 -  3) =      3.41362  eV     1   --> B_1  D_3  S_3  
     e(  4 -  4) =      4.15175  eV     1   --> B_2  D_4  S_4  
     e(  5 -  5) =      6.86586  eV     1   --> A_1  D_1  S_1  
     e(  6 -  6) =     21.04512  eV     1   --> A_1  D_1  S_1  
     e(  7 -  7) =     22.41296  eV     1   --> A_1  D_1  S_1  
     e(  8 -  8) =     23.85476  eV     1   --> B_2  D_4  S_4  
     e(  9 -  9) =     24.66496  eV     1   --> B_1  D_3  S_3  
     e( 10 - 10) =     30.93415  eV     1   --> B_2  D_4  S_4  

 **************************************************************************

 **************************************************************************

                    xk=(  -0.46250,   0.00000,   1.00000  )

     Band symmetry, C_2v (mm2)  point group:

     e(  1 -  1) =    -89.44003  eV     1   --> A_1  D_1  S_1  
     e(  2 -  2) =     -3.09767  eV     1   --> A_1  D_1  S_1  
     e(  3 -  3) =      3.50058  eV     1   --> B_1  D_3  S_3  
     e(  4 -  4) =      4.05479  eV     1   --> B_2  D_4  S_4  
     e(  5 -  5) =      6.86597  eV     1   --> A_1  D_1  S_1  
     e(  6 -  6) =     21.18922  eV     1   --> A_1  D_1  S_1  
     e(  7 -  7) =     22.25291  eV     1   --> A_1  D_1  S_1  
     e(  8 -  8) =     23.96744  eV     1   --> B_2  D_4  S_4  
     e(  9 -  9) =     24.57475  eV     1   --> B_1  D_3  S_3  
     e( 10 - 10) =     31.18801  eV     1   --> B_2  D_4  S_4  

 **************************************************************************

 **************************************************************************

                    xk=(  -0.47500,  -0.00000,   1.00000  )

     Band symmetry, C_2v (mm2)  point group:

     e(  1 -  1) =    -89.44003  eV     1   --> A_1  D_1  S_1  
     e(  2 -  2) =     -3.09805  eV     1   --> A_1  D_1  S_1  
     e(  3 -  3) =      3.58922  eV     1   --> B_1  D_3  S_3  
     e(  4 -  4) =      3.95899  eV     1   --> B_2  D_4  S_4  
     e(  5 -  5) =      6.86605  eV     1   --> A_1  D_1  S_1  
     e(  6 -  6) =     21.32768  eV     1   --> A_1  D_1  S_1  
     e(  7 -  7) =     22.10301  eV     1   --> A_1  D_1  S_1  
     e(  8 -  8) =     24.07679  eV     1   --> B_2  D_4  S_4  
     e(  9 -  9) =     24.48150  eV     1   --> B_1  D_3  S_3  
     e( 10 - 10) =     31.45043  eV     1   --> B_2  D_4  S_4  

 **************************************************************************

 **************************************************************************

                    xk=(  -0.48750,   0.00000,   1.00000  )

     Band symmetry, C_2v (mm2)  point group:

     e(  1 -  1) =    -89.44003  eV     1   --> A_1  D_1  S_1  
     e(  2 -  2) =     -3.09828  eV     1   --> A_1  D_1  S_1  
     e(  3 -  3) =      3.67947  eV     1   --> B_1  D_3  S_3  
     e(  4 -  4) =      3.86444  eV     1   --> B_2  D_4  S_4  
     e(  5 -  5) =      6.86610  eV     1   --> A_1  D_1  S_1  
     e(  6 -  6) =     21.44632  eV     1   --> A_1  D_1  S_1  
     e(  7 -  7) =     21.97749  eV     1   --> A_1  D_1  S_1  
     e(  8 -  8) =     24.18284  eV     1   --> B_2  D_4  S_4  
     e(  9 -  9) =     24.38514  eV     1   --> B_1  D_3  S_3  
     e( 10 - 10) =     31.72122  eV     1   --> B_2  D_4  S_4  

 **************************************************************************

 **************************************************************************

                    xk=(  -0.50000,   0.00000,   1.00000  )

     point group D_2d (-42m)
     there are  5 classes
     the character table:

       E     2S4   C2    2C2'  2s_d 
A_1    1.00  1.00  1.00  1.00  1.00
A_2    1.00  1.00  1.00 -1.00 -1.00
B_1    1.00 -1.00  1.00  1.00 -1.00
B_2    1.00 -1.00  1.00 -1.00  1.00
E      2.00  0.00 -2.00  0.00  0.00

     the symmetry operations in each class and the name of the first element:

     E        1
                                                                 
     2S4      7    8
                                                                 
     C2       2
                                                                 
     2C2'     3    4
                                                                 
     2s_d     5    6
                                                                 

     Band symmetry, D_2d (-42m) point group:

     e(  1 -  1) =    -89.44003  eV     1   --> A_1  X_1  W_1  
     e(  2 -  2) =     -3.09836  eV     1   --> B_2  X_3  W_2  
     e(  3 -  4) =      3.77123  eV     2   --> E    X_5  W_3  
     e(  5 -  5) =      6.86612  eV     1   --> A_1  X_1  W_1  
     e(  6 -  6) =     21.50119  eV     1   --> A_1  X_1  W_1  
     e(  7 -  7) =     21.92032  eV     1   --> B_2  X_3  W_2  
     e(  8 -  9) =     24.28561  eV     2   --> E    X_5  W_3  
     e( 10 - 10) =     32.00014  eV     1   -->   ?

 **************************************************************************

 **************************************************************************

                    xk=(  -0.50000,  -0.01250,   0.98750  )

     point group C_2  (2)   
     there are  2 classes
     the character table:

       E     C2   
A      1.00  1.00
B      1.00 -1.00

     the symmetry operations in each class and the name of the first element:

     E        1
                                                                 
     C2       2
                                                                 

     Band symmetry, C_2  (2)    point group:

     e(  1 -  1) =    -89.44003  eV     1   --> A              
     e(  2 -  2) =     -3.10263  eV     1   --> B              
     e(  3 -  3) =      3.76639  eV     1   --> A              
     e(  4 -  4) =      3.77984  eV     1   --> B              
     e(  5 -  5) =      6.87274  eV     1   --> A              
     e(  6 -  6) =     21.49629  eV     1   --> A              
     e(  7 -  7) =     21.91247  eV     1   --> B              
     e(  8 -  8) =     24.28671  eV     1   --> B              
     e(  9 -  9) =     24.29281  eV     1   --> A              
     e( 10 - 10) =     32.00228  eV     1   -->   ?

 **************************************************************************

 **************************************************************************

                    xk=(  -0.50000,  -0.02500,   0.97500  )

     Band symmetry, C_2  (2)    point group:

     e(  1 -  1) =    -89.44004  eV     1   --> A              
     e(  2 -  2) =     -3.11535  eV     1   --> B              
     e(  3 -  3) =      3.75200  eV     1   --> A              
     e(  4 -  4) =      3.80559  eV     1   --> B              
     e(  5 -  5) =      6.89246  eV     1   --> A              
     e(  6 -  6) =     21.48176  eV     1   --> A              
     e(  7 -  7) =     21.88919  eV     1   --> B              
     e(  8 -  8) =     24.28964  eV     1   --> B              
     e(  9 -  9) =     24.31419  eV     1   --> A              
     e( 10 - 10) =     32.00871  eV     1   -->   ?

 **************************************************************************

 **************************************************************************

                    xk=(  -0.50000,  -0.03750,   0.96250  )

     Band symmetry, C_2  (2)    point group:

     e(  1 -  1) =    -89.44005  eV     1   --> A              
     e(  2 -  2) =     -3.13630  eV     1   --> B              
     e(  3 -  3) =      3.72849  eV     1   --> A              
     e(  4 -  4) =      3.84823  eV     1   --> B              
     e(  5 -  5) =      6.92482  eV     1   --> A              
     e(  6 -  6) =     21.45816  eV     1   --> A              
     e(  7 -  7) =     21.85129  eV     1   --> B              
     e(  8 -  8) =     24.29332  eV     1   --> B              
     e(  9 -  9) =     24.34917  eV     1   --> A              
     e( 10 - 10) =     32.01991  eV     1   -->   ?

 **************************************************************************

 **************************************************************************

                    xk=(  -0.50000,  -0.05000,   0.95000  )

     Band symmetry, C_2  (2)    point group:

     e(  1 -  1) =    -89.44006  eV     1   --> A              
     e(  2 -  2) =     -3.16510  eV     1   --> B              
     e(  3 -  3) =      3.69652  eV     1   --> A              
     e(  4 -  4) =      3.90734  eV     1   --> B              
     e(  5 -  5) =      6.96912  eV     1   --> A              
     e(  6 -  6) =     21.42634  eV     1   --> A              
     e(  7 -  7) =     21.79999  eV     1   --> B              
     e(  8 -  8) =     24.29608  eV     1   --> B              
     e(  9 -  9) =     24.39684  eV     1   --> A              
     e( 10 - 10) =     32.03437  eV     1   -->   ?

 **************************************************************************

 **************************************************************************

                    xk=(  -0.50000,  -0.06250,   0.93750  )

     Band symmetry, C_2  (2)    point group:

     e(  1 -  1) =    -89.44007  eV     1   --> A              
     e(  2 -  2) =     -3.20127  eV     1   --> B              
     e(  3 -  3) =      3.65692  eV     1   --> A              
     e(  4 -  4) =      3.98240  eV     1   --> B              
     e(  5 -  5) =      7.02447  eV     1   --> A              
     e(  6 -  6) =     21.38733  eV     1   --> A              
     e(  7 -  7) =     21.73679  eV     1   --> B              
     e(  8 -  8) =     24.29586  eV     1   --> B              
     e(  9 -  9) =     24.45605  eV     1   --> A              
     e( 10 - 10) =     32.05327  eV     1   --> A              

[...]
     e( 10 - 10) =     30.47145  eV     1   --> A_1  L_1       

 **************************************************************************

 **************************************************************************

                    xk=(  -0.27500,  -0.27500,   0.27500  )

     Band symmetry, C_3v (3m)   point group:

     e(  1 -  1) =    -89.44235  eV     1   --> A_1  L_1       
     e(  2 -  2) =     -6.73498  eV     1   --> A_1  L_1       
     e(  3 -  3) =      5.57048  eV     1   --> A_1  L_1       
     e(  4 -  5) =      9.94013  eV     2   --> E    L_3       
     e(  6 -  6) =     19.68601  eV     1   --> A_1  L_1       
     e(  7 -  8) =     22.20001  eV     2   --> E    L_3       
     e(  9 -  9) =     25.32227  eV     1   --> A_1  L_1       
     e( 10 - 10) =     30.31541  eV     1   --> A_1  L_1       

 **************************************************************************

 **************************************************************************

                    xk=(  -0.26250,  -0.26250,   0.26250  )

     Band symmetry, C_3v (3m)   point group:

     e(  1 -  1) =    -89.44247  eV     1   --> A_1  L_1       
     e(  2 -  2) =     -6.85805  eV     1   --> A_1  L_1       
     e(  3 -  3) =      5.86919  eV     1   --> A_1  L_1       
     e(  4 -  5) =      9.95437  eV     2   --> E    L_3       
     e(  6 -  6) =     19.81586  eV     1   --> A_1  L_1       
     e(  7 -  8) =     22.40381  eV     2   --> E    L_3       
     e(  9 -  9) =     25.19143  eV     1   --> A_1  L_1       
     e( 10 - 10) =     30.16550  eV     1   --> A_1  L_1       

 **************************************************************************

 **************************************************************************

                    xk=(  -0.25000,  -0.25000,   0.25000  )

     Band symmetry, C_3v (3m)   point group:

     e(  1 -  1) =    -89.44259  eV     1   --> A_1  L_1       
     e(  2 -  2) =     -6.97751  eV     1   --> A_1  L_1       
     e(  3 -  3) =      6.16907  eV     1   --> A_1  L_1       
     e(  4 -  5) =      9.96916  eV     2   --> E    L_3       
     e(  6 -  6) =     19.94516  eV     1   --> A_1  L_1       
     e(  7 -  8) =     22.61534  eV     2   --> E    L_3       
     e(  9 -  9) =     25.06888  eV     1   --> A_1  L_1       
     e( 10 - 10) =     30.02200  eV     1   --> A_1  L_1       

 **************************************************************************

 **************************************************************************

                    xk=(  -0.23750,  -0.23750,   0.23750  )

     Band symmetry, C_3v (3m)   point group:

     e(  1 -  1) =    -89.44271  eV     1   --> A_1  L_1       
     e(  2 -  2) =     -7.09295  eV     1   --> A_1  L_1       
     e(  3 -  3) =      6.46887  eV     1   --> A_1  L_1       
     e(  4 -  5) =      9.98442  eV     2   --> E    L_3       
     e(  6 -  6) =     20.07156  eV     1   --> A_1  L_1       
     e(  7 -  8) =     22.83402  eV     2   --> E    L_3       
     e(  9 -  9) =     24.95796  eV     1   --> A_1  L_1       
     e( 10 - 10) =     29.88511  eV     1   --> A_1  L_1       

 **************************************************************************

 **************************************************************************

                    xk=(  -0.22500,  -0.22500,   0.22500  )

     Band symmetry, C_3v (3m)   point group:

     e(  1 -  1) =    -89.44283  eV     1   --> A_1  L_1       
     e(  2 -  2) =     -7.20401  eV     1   --> A_1  L_1       
     e(  3 -  3) =      6.76729  eV     1   --> A_1  L_1       
     e(  4 -  5) =     10.00004  eV     2   --> E    L_3       
     e(  6 -  6) =     20.19227  eV     1   --> A_1  L_1       
     e(  7 -  8) =     23.05918  eV     2   --> E    L_3       
     e(  9 -  9) =     24.86242  eV     1   --> A_1  L_1       
     e( 10 - 10) =     29.75505  eV     1   --> A_1  L_1       

 **************************************************************************

 **************************************************************************

                    xk=(  -0.21250,  -0.21250,   0.21250  )

     Band symmetry, C_3v (3m)   point group:

     e(  1 -  1) =    -89.44294  eV     1   --> A_1  L_1       
     e(  2 -  2) =     -7.31037  eV     1   --> A_1  L_1       
     e(  3 -  3) =      7.06304  eV     1   --> A_1  L_1       
     e(  4 -  5) =     10.01591  eV     2   --> E    L_3       
     e(  6 -  6) =     20.30412  eV     1   --> A_1  L_1       
     e(  7 -  8) =     23.29008  eV     2   --> E    L_3       
     e(  9 -  9) =     24.78632  eV     1   --> A_1  L_1       
     e( 10 - 10) =     29.63202  eV     1   --> A_1  L_1       

 **************************************************************************

 **************************************************************************

                    xk=(  -0.20000,  -0.20000,   0.20000  )

     Band symmetry, C_3v (3m)   point group:

     e(  1 -  1) =    -89.44306  eV     1   --> A_1  L_1       
     e(  2 -  2) =     -7.41176  eV     1   --> A_1  L_1       
     e(  3 -  3) =      7.35477  eV     1   --> A_1  L_1       
     e(  4 -  5) =     10.03194  eV     2   --> E    L_3       
     e(  6 -  6) =     20.40370  eV     1   --> A_1  L_1       
     e(  7 -  8) =     23.52590  eV     2   --> E    L_3       
     e(  9 -  9) =     24.73386  eV     1   --> A_1  L_1       
     e( 10 - 10) =     29.51623  eV     1   --> A_1  L_1       

 **************************************************************************

 **************************************************************************

                    xk=(  -0.18750,  -0.18750,   0.18750  )

     Band symmetry, C_3v (3m)   point group:

     e(  1 -  1) =    -89.44317  eV     1   --> A_1  L_1       
     e(  2 -  2) =     -7.50794  eV     1   --> A_1  L_1       
     e(  3 -  3) =      7.64108  eV     1   --> A_1  L_1       
     e(  4 -  5) =     10.04798  eV     2   --> E    L_3       
     e(  6 -  6) =     20.48764  eV     1   --> A_1  L_1       
     e(  7 -  8) =     23.76570  eV     2   --> E    L_3       
     e(  9 -  9) =     24.70910  eV     1   --> A_1  L_1       
     e( 10 - 10) =     29.40792  eV     1   --> A_1  L_1       

 **************************************************************************

 **************************************************************************

                    xk=(  -0.17500,  -0.17500,   0.17500  )

     Band symmetry, C_3v (3m)   point group:

     e(  1 -  1) =    -89.44328  eV     1   --> A_1  L_1       
     e(  2 -  2) =     -7.59869  eV     1   --> A_1  L_1       
     e(  3 -  3) =      7.92052  eV     1   --> A_1  L_1       
     e(  4 -  5) =     10.06391  eV     2   --> E    L_3       
     e(  6 -  6) =     20.55308  eV     1   --> A_1  L_1       
     e(  7 -  8) =     24.00843  eV     2   --> E    L_3       
     e(  9 -  9) =     24.71548  eV     1   --> A_1  L_1       
     e( 10 - 10) =     29.30736  eV     1   --> A_1  L_1       

 **************************************************************************

 **************************************************************************

                    xk=(  -0.16250,  -0.16250,   0.16250  )

     Band symmetry, C_3v (3m)   point group:

     e(  1 -  1) =    -89.44339  eV     1   --> A_1  L_1       
     e(  2 -  2) =     -7.68383  eV     1   --> A_1  L_1       
     e(  3 -  3) =      8.19160  eV     1   --> A_1  L_1       
     e(  4 -  5) =     10.07958  eV     2   --> E    L_3       
     e(  6 -  6) =     20.59802  eV     1   --> A_1  L_1       
     e(  7 -  8) =     24.25287  eV     2   --> E    L_3       
     e(  9 -  9) =     24.75529  eV     1   --> A_1  L_1       
     e( 10 - 10) =     29.21490  eV     1   --> A_1  L_1       

 **************************************************************************

 **************************************************************************

                    xk=(  -0.15000,  -0.15000,   0.15000  )

     Band symmetry, C_3v (3m)   point group:

     e(  1 -  1) =    -89.44348  eV     1   --> A_1  L_1       
     e(  2 -  2) =     -7.76320  eV     1   --> A_1  L_1       
     e(  3 -  3) =      8.45275  eV     1   --> A_1  L_1       
     e(  4 -  5) =     10.09486  eV     2   --> E    L_3       
     e(  6 -  6) =     20.62189  eV     1   --> A_1  L_1       
     e(  7 -  8) =     24.49765  eV     2   --> E    L_3       
     e(  9 -  9) =     24.82926  eV     1   --> A_1  L_1       
     e( 10 - 10) =     29.13094  eV     1   --> A_1  L_1       

 **************************************************************************

 **************************************************************************

                    xk=(  -0.13750,  -0.13750,   0.13750  )

     Band symmetry, C_3v (3m)   point group:

     e(  1 -  1) =    -89.44358  eV     1   --> A_1  L_1       
     e(  2 -  2) =     -7.83667  eV     1   --> A_1  L_1       
     e(  3 -  3) =      8.70232  eV     1   --> A_1  L_1       
     e(  4 -  5) =     10.10960  eV     2   --> E    L_3       
     e(  6 -  6) =     20.62556  eV     1   --> A_1  L_1       
     e(  7 -  8) =     24.74120  eV     2   --> E    L_3       
     e(  9 -  9) =     24.93624  eV     1   --> A_1  L_1       
     e( 10 - 10) =     29.05597  eV     1   --> A_1  L_1       

 **************************************************************************

 **************************************************************************

                    xk=(  -0.12500,  -0.12500,   0.12500  )

     Band symmetry, C_3v (3m)   point group:

     e(  1 -  1) =    -89.44367  eV     1   --> A_1  L_1       
     e(  2 -  2) =     -7.90410  eV     1   --> A_1  L_1       
     e(  3 -  3) =      8.93865  eV     1   --> A_1  L_1       
     e(  4 -  5) =     10.12366  eV     2   --> E    L_3       
     e(  6 -  6) =     20.61132  eV     1   --> A_1  L_1       
     e(  7 -  8) =     24.98168  eV     2   --> E    L_3       
     e(  9 -  9) =     25.07323  eV     1   --> A_1  L_1       
     e( 10 - 10) =     28.99058  eV     1   --> A_1  L_1       

 **************************************************************************

 **************************************************************************

                    xk=(  -0.11250,  -0.11250,   0.11250  )

     Band symmetry, C_3v (3m)   point group:

     e(  1 -  1) =    -89.44375  eV     1   --> A_1  L_1       
     e(  2 -  2) =     -7.96540  eV     1   --> A_1  L_1       
     e(  3 -  3) =      9.15998  eV     1   --> A_1  L_1       
     e(  4 -  5) =     10.13689  eV     2   --> E    L_3       
     e(  6 -  6) =     20.58248  eV     1   --> A_1  L_1       
     e(  7 -  8) =     25.21699  eV     2   --> E    L_3       
     e(  9 -  9) =     25.23561  eV     1   --> A_1  L_1       
     e( 10 - 10) =     28.93549  eV     1   --> A_1  L_1       

 **************************************************************************

 **************************************************************************

                    xk=(  -0.10000,  -0.10000,   0.10000  )

     Band symmetry, C_3v (3m)   point group:

     e(  1 -  1) =    -89.44382  eV     1   --> A_1  L_1       
     e(  2 -  2) =     -8.02046  eV     1   --> A_1  L_1       
     e(  3 -  3) =      9.36454  eV     1   --> A_1  L_1       
     e(  4 -  5) =     10.14916  eV     2   --> E    L_3       
     e(  6 -  6) =     20.54297  eV     1   --> A_1  L_1       
     e(  7 -  7) =     25.41733  eV     1   --> A_1  L_1       
     e(  8 -  9) =     25.44467  eV     2   --> E    L_3       
     e( 10 - 10) =     28.89149  eV     1   --> A_1  L_1       

 **************************************************************************

 **************************************************************************

                    xk=(  -0.08750,  -0.08750,   0.08750  )

     Band symmetry, C_3v (3m)   point group:

     e(  1 -  1) =    -89.44389  eV     1   --> A_1  L_1       
     e(  2 -  2) =     -8.06922  eV     1   --> A_1  L_1       
     e(  3 -  3) =      9.55055  eV     1   --> A_1  L_1       
     e(  4 -  5) =     10.16033  eV     2   --> E    L_3       
     e(  6 -  6) =     20.49685  eV     1   --> A_1  L_1       
     e(  7 -  7) =     25.61115  eV     1   --> A_1  L_1       
     e(  8 -  9) =     25.66187  eV     2   --> E    L_3       
     e( 10 - 10) =     28.85945  eV     1   --> A_1  L_1       

 **************************************************************************

 **************************************************************************

                    xk=(  -0.07500,  -0.07500,   0.07500  )

     Band symmetry, C_3v (3m)   point group:

     e(  1 -  1) =    -89.44395  eV     1   --> A_1  L_1       
     e(  2 -  2) =     -8.11160  eV     1   --> A_1  L_1       
     e(  3 -  3) =      9.71623  eV     1   --> A_1  L_1       
     e(  4 -  5) =     10.17029  eV     2   --> E    L_3       
     e(  6 -  6) =     20.44810  eV     1   --> A_1  L_1       
     e(  7 -  7) =     25.80871  eV     1   --> A_1  L_1       
     e(  8 -  9) =     25.86521  eV     2   --> E    L_3       
     e( 10 - 10) =     28.84011  eV     1   --> A_1  L_1       

 **************************************************************************

 **************************************************************************

                    xk=(  -0.06250,  -0.06250,   0.06250  )

     Band symmetry, C_3v (3m)   point group:

     e(  1 -  1) =    -89.44400  eV     1   --> A_1  L_1       
     e(  2 -  2) =     -8.14756  eV     1   --> A_1  L_1       
     e(  3 -  3) =      9.85989  eV     1   --> A_1  L_1       
     e(  4 -  5) =     10.17892  eV     2   --> E    L_3       
     e(  6 -  6) =     20.40032  eV     1   --> A_1  L_1       
     e(  7 -  7) =     26.00065  eV     1   --> A_1  L_1       
     e(  8 -  9) =     26.05077  eV     2   --> E    L_3       
     e( 10 - 10) =     28.83374  eV     1   --> A_1  L_1       

 **************************************************************************

 **************************************************************************

                    xk=(  -0.05000,  -0.05000,   0.05000  )

     Band symmetry, C_3v (3m)   point group:

     e(  1 -  1) =    -89.44404  eV     1   --> A_1  L_1       
     e(  2 -  2) =     -8.17704  eV     1   --> A_1  L_1       
     e(  3 -  3) =      9.97992  eV     1   --> A_1  L_1       
     e(  4 -  5) =     10.18612  eV     2   --> E    L_3       
     e(  6 -  6) =     20.35671  eV     1   --> A_1  L_1       
     e(  7 -  7) =     26.17685  eV     1   --> A_1  L_1       
     e(  8 -  9) =     26.21398  eV     2   --> E    L_3       
     e( 10 - 10) =     28.83954  eV     1   --> A_1  L_1       

 **************************************************************************

 **************************************************************************

                    xk=(  -0.03750,  -0.03750,   0.03750  )

     Band symmetry, C_3v (3m)   point group:

     e(  1 -  1) =    -89.44407  eV     1   --> A_1  L_1       
     e(  2 -  2) =     -8.20000  eV     1   --> A_1  L_1       
     e(  3 -  3) =     10.07491  eV     1   --> A_1  L_1       
     e(  4 -  5) =     10.19181  eV     2   --> E    L_3       
     e(  6 -  6) =     20.31993  eV     1   --> A_1  L_1       
     e(  7 -  7) =     26.32704  eV     1   --> A_1  L_1       
     e(  8 -  9) =     26.34965  eV     2   --> E    L_3       
     e( 10 - 10) =     28.85476  eV     1   --> A_1  L_1       

 **************************************************************************

 **************************************************************************

                    xk=(  -0.02500,  -0.02500,   0.02500  )

     Band symmetry, C_3v (3m)   point group:

     e(  1 -  1) =    -89.44410  eV     1   --> A_1  L_1       
     e(  2 -  2) =     -8.21642  eV     1   --> A_1  L_1       
     e(  3 -  3) =     10.14367  eV     1   --> A_1  L_1       
     e(  4 -  5) =     10.19592  eV     2   --> E    L_3       
     e(  6 -  6) =     20.29213  eV     1   --> A_1  L_1       
     e(  7 -  7) =     26.44183  eV     1   --> A_1  L_1       
     e(  8 -  9) =     26.45221  eV     2   --> E    L_3       
     e( 10 - 10) =     28.87411  eV     1   --> A_1  L_1       

 **************************************************************************

 **************************************************************************

                    xk=(  -0.01250,  -0.01250,   0.01250  )

     Band symmetry, C_3v (3m)   point group:

     e(  1 -  1) =    -89.44411  eV     1   --> A_1  L_1       
     e(  2 -  2) =     -8.22628  eV     1   --> A_1  L_1       
     e(  3 -  3) =     10.18530  eV     1   --> A_1  L_1       
     e(  4 -  5) =     10.19841  eV     2   --> E    L_3       
     e(  6 -  6) =     20.27482  eV     1   --> A_1  L_1       
     e(  7 -  7) =     26.51379  eV     1   --> A_1  L_1       
     e(  8 -  9) =     26.51641  eV     2   --> E    L_3       
     e( 10 - 10) =     28.89035  eV     1   --> A_1  L_1       

 **************************************************************************

 **************************************************************************

                    xk=(   0.00000,   0.00000,   0.00000  )

     point group O_h (m-3m) 
     there are 10 classes
     the character table:

       E     8C3   3C2   6C4   6C2'  i     8S6   3s_h  6S4   6s_d 
A_1g   1.00  1.00  1.00  1.00  1.00  1.00  1.00  1.00  1.00  1.00
A_2g   1.00  1.00  1.00 -1.00 -1.00  1.00  1.00  1.00 -1.00 -1.00
E_g    2.00 -1.00  2.00  0.00  0.00  2.00 -1.00  2.00  0.00  0.00
T_1g   3.00  0.00 -1.00  1.00 -1.00  3.00  0.00 -1.00  1.00 -1.00
T_2g   3.00  0.00 -1.00 -1.00  1.00  3.00  0.00 -1.00 -1.00  1.00
A_1u   1.00  1.00  1.00  1.00  1.00 -1.00 -1.00 -1.00 -1.00 -1.00
A_2u   1.00  1.00  1.00 -1.00 -1.00 -1.00 -1.00 -1.00  1.00  1.00
E_u    2.00 -1.00  2.00  0.00  0.00 -2.00  1.00 -2.00  0.00  0.00
T_1u   3.00  0.00 -1.00  1.00 -1.00 -3.00  0.00  1.00 -1.00  1.00
T_2u   3.00  0.00 -1.00 -1.00  1.00 -3.00  0.00  1.00  1.00 -1.00

     the symmetry operations in each class and the name of the first element:

     E        1
                                                                 
     8C3     17   19   20   18   24   21   22   23
                                                                 
     3C2      2    4    3
                                                                 
     6C4      7    8   15   16   12   11
                                                                 
     6C2'     5    6   14   13   10    9
                                                                 
     i       25
                                                                 
     8S6     41   43   44   42   48   45   46   47
                                                                 
     3s_h    26   28   27
                                                                 
     6S4     31   32   39   40   36   35
                                                                 
     6s_d    29   30   38   37   34   33
                                                                 

     Band symmetry, O_h (m-3m)  point group:

     e(  1 -  1) =    -89.44412  eV     1   --> A_1g G_1   G_1+
     e(  2 -  2) =     -8.22957  eV     1   --> A_1g G_1   G_1+
     e(  3 -  5) =     10.19924  eV     3   --> T_1u G_15  G_4-
     e(  6 -  6) =     20.26894  eV     1   --> A_1g G_1   G_1+
     e(  7 -  9) =     26.53830  eV     3   --> T_1u G_15  G_4-
     e( 10 - 10) =     28.89670  eV     1   -->   ?

 **************************************************************************

     BANDS        :      4.26s CPU      4.49s WALL


   This run was terminated on:  17:52:57  20Dec2025            

=------------------------------------------------------------------------------=
   JOB DONE.
=------------------------------------------------------------------------------=
