
     Program PWSCF v.7.5 starts on 20Dec2025 at 18: 7:47 

     This program is part of the open-source Quantum ESPRESSO suite
     for quantum simulation of materials; please cite
         "P. Giannozzi et al., J. Phys.:Condens. Matter 21 395502 (2009);
         "P. Giannozzi et al., J. Phys.:Condens. Matter 29 465901 (2017);
         "P. Giannozzi et al., J. Chem. Phys. 152 154105 (2020);
          URL http://www.quantum-espresso.org", 
     in publications or presentations arising from this work. More details at
     http://www.quantum-espresso.org/quote

     Serial version
     2365 MiB available memory on the printing compute node when the environment starts

     Waiting for input...
     Reading input from standard input

     Current dimensions of program PWSCF are:
     Max number of different atomic species (ntypx) = 10
     Max number of k-points (npk) =  40000
     Max angular momentum in pseudopotentials (lmaxx) =  4

     Atomic positions and unit cell read from directory:
     ./tmp/BeN.save/



     G-vector sticks info
     --------------------
     sticks:   dense  smooth     PW     G-vecs:    dense   smooth      PW
     Sum         673     673    211                11791    11791    2085

     Using Slab Decomposition



     bravais-lattice index     =            2
     lattice parameter (alat)  =       7.0440  a.u.
     unit-cell volume          =      87.3787 (a.u.)^3
     number of atoms/cell      =            2
     number of atomic types    =            2
     number of electrons       =         9.00
     number of Kohn-Sham states=           10
     kinetic-energy cutoff     =     100.0000  Ry
     charge density cutoff     =     400.0000  Ry
     Exchange-correlation= PBE
                           (   1   4   3   4   0   0   0)

     celldm(1)=   7.044042  celldm(2)=   0.000000  celldm(3)=   0.000000
     celldm(4)=   0.000000  celldm(5)=   0.000000  celldm(6)=   0.000000

     crystal axes: (cart. coord. in units of alat)
               a(1) = (  -0.500000   0.000000   0.500000 )  
               a(2) = (   0.000000   0.500000   0.500000 )  
               a(3) = (  -0.500000   0.500000   0.000000 )  

     reciprocal axes: (cart. coord. in units 2 pi/alat)
               b(1) = ( -1.000000 -1.000000  1.000000 )  
               b(2) = (  1.000000  1.000000  1.000000 )  
               b(3) = ( -1.000000  1.000000 -1.000000 )  


     PseudoPot. # 1 for Be read from file:
     ./PSEUDO/Be_ONCV_PBE_sr.upf
     MD5 check sum: f32703449d889b1d166f7ecd0677d20c
     Pseudo is Norm-conserving, Zval =  4.0
     Generated using ONCVPSP code by D. R. Hamann
     Using radial grid of 1358 points,  4 beta functions with: 
                l(1) =   0
                l(2) =   0
                l(3) =   1
                l(4) =   1

     PseudoPot. # 2 for N  read from file:
     ./PSEUDO/N_ONCV_PBE_sr.upf
     MD5 check sum: 18c6af81dac9c5a2d6d52ed11cf7bfee
     Pseudo is Norm-conserving + core correction, Zval =  5.0
     Generated using ONCVPSP code by D. R. Hamann
     Using radial grid of 1058 points,  4 beta functions with: 
                l(1) =   0
                l(2) =   0
                l(3) =   1
                l(4) =   1

     atomic species   valence    mass     pseudopotential
     Be                4.00     9.01218     Be( 1.00)
     N                 5.00    14.00670     N ( 1.00)

     48 Sym. Ops., with inversion, found



   Cartesian axes

     site n.     atom                  positions (alat units)
         1        Be     tau(   1) = (   0.0000000   0.0000000   0.0000000  )
         2        N      tau(   2) = (  -0.5000000   0.5000000   0.5000000  )

     number of k points=   256 (tetrahedron method)

     Number of k-points >= 100: set verbosity='high' to print them.

     Dense  grid:    11791 G-vectors     FFT dimensions: (  32,  32,  32)

     Estimated max dynamical RAM per process >       6.63 MB

     The potential is recalculated from file :
     ./tmp/BeN.save/charge-density

     Starting wfcs are    6 randomized atomic wfcs +    4 random wfcs

     Band Structure Calculation
     Davidson diagonalization with overlap

     ethr =  1.11E-08,  avg # of iterations = 14.1

     total cpu time spent up to now is       16.7 secs

     End of band structure calculation

     Number of k-points >= 100: set verbosity='high' to print the bands.

     the Fermi energy is     9.0891 ev
     (compare with:     9.1250 eV, computed in scf)

     Writing all to output data dir ./tmp/BeN.save/ :
     XML data file, pseudopotentials, collected wavefunctions

     init_run     :      0.21s CPU      0.22s WALL (       1 calls)
     electrons    :     13.31s CPU     14.49s WALL (       1 calls)

     Called by init_run:
     wfcinit      :      0.00s CPU      0.00s WALL (       1 calls)
     potinit      :      0.01s CPU      0.01s WALL (       1 calls)
     hinit0       :      0.14s CPU      0.14s WALL (       1 calls)

     Called by electrons:
     c_bands      :     12.94s CPU     14.11s WALL (       1 calls)
     v_of_rho     :      0.01s CPU      0.01s WALL (       1 calls)

     Called by c_bands:
     init_us_2    :      0.03s CPU      0.05s WALL (     256 calls)
     cegterg      :     11.84s CPU     12.81s WALL (     267 calls)

     Called by *egterg:
     cdiaghg      :      0.25s CPU      0.29s WALL (    3867 calls)
     h_psi        :      9.47s CPU     10.37s WALL (    4134 calls)
     g_psi        :      0.09s CPU      0.11s WALL (    3611 calls)

     Called by h_psi:
     h_psi:calbec :      0.55s CPU      0.60s WALL (    4134 calls)
     vloc_psi     :      8.32s CPU      9.12s WALL (    4134 calls)
                                        0.00s GPU  (    4134 calls)
     add_vuspsi   :      0.48s CPU      0.54s WALL (    4134 calls)

     General routines
     calbec       :      0.52s CPU      0.58s WALL (    4134 calls)
     fft          :      0.00s CPU      0.00s WALL (      11 calls)
     fftw         :      7.04s CPU      8.01s WALL (   56192 calls)
     davcio       :      0.02s CPU      0.04s WALL (     512 calls)


     PWSCF        :     15.57s CPU     16.83s WALL


   This run was terminated on:  18: 8: 4  20Dec2025            

=------------------------------------------------------------------------------=
   JOB DONE.
=------------------------------------------------------------------------------=
