
     Program BANDS v.7.5 starts on 10Jan2026 at 21:11:16 

     This program is part of the open-source Quantum ESPRESSO suite
     for quantum simulation of materials; please cite
         "P. Giannozzi et al., J. Phys.:Condens. Matter 21 395502 (2009);
         "P. Giannozzi et al., J. Phys.:Condens. Matter 29 465901 (2017);
         "P. Giannozzi et al., J. Chem. Phys. 152 154105 (2020);
          URL http://www.quantum-espresso.org", 
     in publications or presentations arising from this work. More details at
     http://www.quantum-espresso.org/quote

     Serial version
     1030 MiB available memory on the printing compute node when the environment starts


     Reading xml data from directory:

     ./tmp/MgB2.save/

     IMPORTANT: XC functional enforced from input :
     Exchange-correlation= PBE
                           (   1   4   3   4   0   0   0)
     Any further DFT definition will be discarded
     Please, verify this is what you really want


     G-vector sticks info
     --------------------
     sticks:   dense  smooth     PW     G-vecs:    dense   smooth      PW
     Sum         847     847    253                22583    22583    3621

     Using Slab Decomposition

     Reading collected, re-writing distributed wavefunctions
     high-symmetry point:  0.0000 0.0000 0.0000   x coordinate   0.0000
     high-symmetry point:  0.5000 0.2887 0.0000   x coordinate   0.5774
     high-symmetry point:  0.3333 0.5773 0.0000   x coordinate   0.9107
     high-symmetry point:  0.0000 0.0000 0.0000   x coordinate   1.5773
     high-symmetry point:  0.0000 0.0000 0.4374   x coordinate   2.0147
     high-symmetry point:  0.5000 0.2887 0.4374   x coordinate   2.5921

     Plottable bands (eV) written to file MgB2.B2.bands.dat.gnu
     Bands written to file MgB2.B2.bands.dat

 **************************************************************************

                    xk=(   0.00000,   0.00000,   0.00000  )

     point group D_6h(6/mmm)
     there are 12 classes
     the character table:

       E     2C6   2C3   C2    3C2'  3C2'' i     2S3   2S6   s_h   3s_d  3s_v 
A_1g   1.00  1.00  1.00  1.00  1.00  1.00  1.00  1.00  1.00  1.00  1.00  1.00
A_2g   1.00  1.00  1.00  1.00 -1.00 -1.00  1.00  1.00  1.00  1.00 -1.00 -1.00
B_1g   1.00 -1.00  1.00 -1.00  1.00 -1.00  1.00 -1.00  1.00 -1.00  1.00 -1.00
B_2g   1.00 -1.00  1.00 -1.00 -1.00  1.00  1.00 -1.00  1.00 -1.00 -1.00  1.00
E_1g   2.00  1.00 -1.00 -2.00  0.00  0.00  2.00  1.00 -1.00 -2.00  0.00  0.00
E_2g   2.00 -1.00 -1.00  2.00  0.00  0.00  2.00 -1.00 -1.00  2.00  0.00  0.00
A_1u   1.00  1.00  1.00  1.00  1.00  1.00 -1.00 -1.00 -1.00 -1.00 -1.00 -1.00
A_2u   1.00  1.00  1.00  1.00 -1.00 -1.00 -1.00 -1.00 -1.00 -1.00  1.00  1.00
B_1u   1.00 -1.00  1.00 -1.00  1.00 -1.00 -1.00  1.00 -1.00  1.00 -1.00  1.00
B_2u   1.00 -1.00  1.00 -1.00 -1.00  1.00 -1.00  1.00 -1.00  1.00  1.00 -1.00
E_1u   2.00  1.00 -1.00 -2.00  0.00  0.00 -2.00 -1.00  1.00  2.00  0.00  0.00
E_2u   2.00 -1.00 -1.00  2.00  0.00  0.00 -2.00  1.00  1.00 -2.00  0.00  0.00

     the symmetry operations in each class and the name of the first element:

     E        1
                                                                 
     2C6      5    6
                                                                 
     2C3      7    8
                                                                 
     C2       2
                                                                 
     3C2'     4   12   11
                                                                 
     3C2''    3    9   10
                                                                 
     i       13
                                                                 
     2S3     17   18
                                                                 
     2S6     19   20
                                                                 
     s_h     14
                                                                 
     3s_d    16   24   23
                                                                 
     3s_v    15   21   22
                                                                 

     Band symmetry, D_6h(6/mmm) point group:

     e(  1 -  1) =    -65.99251  eV     1   --> A_1g           
     e(  2 -  3) =    -32.77239  eV     2   --> E_1u           
     e(  4 -  4) =    -32.75526  eV     1   --> A_2u           
     e(  5 -  5) =     -3.21399  eV     1   --> A_1g           
     e(  6 -  6) =      6.28220  eV     1   --> A_2u           
     e(  7 -  8) =      9.59523  eV     2   --> E_2g           
     e(  9 -  9) =     10.91055  eV     1   --> A_1g           
     e( 10 - 11) =     15.57458  eV     2   --> E_1u           
     e( 12 - 12) =     17.38445  eV     1   --> B_2u           
     e( 13 - 13) =     19.20353  eV     1   --> B_1g           
     e( 14 - 14) =     21.99996  eV     1   --> A_1g           
     e( 15 - 16) =     25.55641  eV     2   --> E_2g           

 **************************************************************************

 **************************************************************************

                    xk=(   0.01250,   0.00722,   0.00000  )

     point group C_2v (mm2) 
     there are  4 classes
     the character table:

       E     C2    s_v   s_v' 
A_1    1.00  1.00  1.00  1.00
A_2    1.00  1.00 -1.00 -1.00
B_1    1.00 -1.00  1.00 -1.00
B_2    1.00 -1.00 -1.00  1.00

     the symmetry operations in each class and the name of the first element:

     E        1
                                                                 
     C2       2
                                                                 
     s_v      3
                                                                 
     s_v'     4
                                                                 

     Band symmetry, C_2v (mm2)  point group:

     e(  1 -  1) =    -65.99251  eV     1   --> A_1  D_1  S_1  
     e(  2 -  3) =    -32.77245  eV     2   --> A_1  D_1  S_1  
     e(  2 -  3) =    -32.77245  eV     2   --> B_1  D_3  S_3  
     e(  4 -  4) =    -32.75525  eV     1   --> B_2  D_4  S_4  
     e(  5 -  5) =     -3.21126  eV     1   --> A_1  D_1  S_1  
     e(  6 -  6) =      6.28487  eV     1   --> B_2  D_4  S_4  
     e(  7 -  7) =      9.58037  eV     1   --> A_1  D_1  S_1  
     e(  8 -  8) =      9.58818  eV     1   --> B_1  D_3  S_3  
     e(  9 -  9) =     10.91289  eV     1   --> A_1  D_1  S_1  
     e( 10 - 10) =     15.57384  eV     1   --> A_1  D_1  S_1  
     e( 11 - 11) =     15.58719  eV     1   --> B_1  D_3  S_3  
     e( 12 - 12) =     17.39009  eV     1   --> A_1  D_1  S_1  
     e( 13 - 13) =     19.19357  eV     1   --> B_2  D_4  S_4  
     e( 14 - 14) =     22.01428  eV     1   --> A_1  D_1  S_1  
     e( 15 - 15) =     25.53986  eV     1   --> A_1  D_1  S_1  
     e( 16 - 16) =     25.54856  eV     1   --> B_1  D_3  S_3  

 **************************************************************************

 **************************************************************************

                    xk=(   0.02500,   0.01443,   0.00000  )

     Band symmetry, C_2v (mm2)  point group:

     e(  1 -  1) =    -65.99249  eV     1   --> A_1  D_1  S_1  
     e(  2 -  2) =    -32.77264  eV     1   --> A_1  D_1  S_1  
     e(  3 -  3) =    -32.77245  eV     1   --> B_1  D_3  S_3  
     e(  4 -  4) =    -32.75522  eV     1   --> B_2  D_4  S_4  
     e(  5 -  5) =     -3.20305  eV     1   --> A_1  D_1  S_1  
     e(  6 -  6) =      6.29286  eV     1   --> B_2  D_4  S_4  
     e(  7 -  7) =      9.53604  eV     1   --> A_1  D_1  S_1  
     e(  8 -  8) =      9.56719  eV     1   --> B_1  D_3  S_3  
     e(  9 -  9) =     10.91994  eV     1   --> A_1  D_1  S_1  
     e( 10 - 10) =     15.57115  eV     1   --> A_1  D_1  S_1  
     e( 11 - 11) =     15.62476  eV     1   --> B_1  D_3  S_3  
     e( 12 - 12) =     17.40725  eV     1   --> A_1  D_1  S_1  
     e( 13 - 13) =     19.16378  eV     1   --> B_2  D_4  S_4  
     e( 14 - 14) =     22.05701  eV     1   --> A_1  D_1  S_1  
     e( 15 - 15) =     25.49117  eV     1   --> A_1  D_1  S_1  
     e( 16 - 16) =     25.52533  eV     1   --> B_1  D_3  S_3  

 **************************************************************************

 **************************************************************************

                    xk=(   0.03750,   0.02165,   0.00000  )

     Band symmetry, C_2v (mm2)  point group:

     e(  1 -  1) =    -65.99246  eV     1   --> A_1  D_1  S_1  
     e(  2 -  2) =    -32.77294  eV     1   --> A_1  D_1  S_1  
     e(  3 -  3) =    -32.77252  eV     1   --> B_1  D_3  S_3  
     e(  4 -  4) =    -32.75517  eV     1   --> B_2  D_4  S_4  
     e(  5 -  5) =     -3.18937  eV     1   --> A_1  D_1  S_1  
     e(  6 -  6) =      6.30618  eV     1   --> B_2  D_4  S_4  
     e(  7 -  7) =      9.46328  eV     1   --> A_1  D_1  S_1  
     e(  8 -  8) =      9.53285  eV     1   --> B_1  D_3  S_3  
     e(  9 -  9) =     10.93182  eV     1   --> A_1  D_1  S_1  
     e( 10 - 10) =     15.56531  eV     1   --> A_1  D_1  S_1  
     e( 11 - 11) =     15.68672  eV     1   --> B_1  D_3  S_3  
     e( 12 - 12) =     17.43647  eV     1   --> A_1  D_1  S_1  
     e( 13 - 13) =     19.11443  eV     1   --> B_2  D_4  S_4  
     e( 14 - 14) =     22.12746  eV     1   --> A_1  D_1  S_1  
     e( 15 - 15) =     25.41307  eV     1   --> A_1  D_1  S_1  
     e( 16 - 16) =     25.48772  eV     1   --> B_1  D_3  S_3  

 **************************************************************************

 **************************************************************************

                    xk=(   0.05000,   0.02887,   0.00000  )

     Band symmetry, C_2v (mm2)  point group:

     e(  1 -  1) =    -65.99243  eV     1   --> A_1  D_1  S_1  
     e(  2 -  2) =    -32.77337  eV     1   --> A_1  D_1  S_1  
     e(  3 -  3) =    -32.77263  eV     1   --> B_1  D_3  S_3  
     e(  4 -  4) =    -32.75511  eV     1   --> B_2  D_4  S_4  
     e(  5 -  5) =     -3.17023  eV     1   --> A_1  D_1  S_1  
     e(  6 -  6) =      6.32482  eV     1   --> B_2  D_4  S_4  
     e(  7 -  7) =      9.36366  eV     1   --> A_1  D_1  S_1  
     e(  8 -  8) =      9.48605  eV     1   --> B_1  D_3  S_3  
     e(  9 -  9) =     10.94866  eV     1   --> A_1  D_1  S_1  
     e( 10 - 10) =     15.55467  eV     1   --> A_1  D_1  S_1  
     e( 11 - 11) =     15.77215  eV     1   --> B_1  D_3  S_3  
     e( 12 - 12) =     17.47835  eV     1   --> A_1  D_1  S_1  
     e( 13 - 13) =     19.04593  eV     1   --> B_2  D_4  S_4  
     e( 14 - 14) =     22.22457  eV     1   --> A_1  D_1  S_1  
     e( 15 - 15) =     25.30954  eV     1   --> A_1  D_1  S_1  
     e( 16 - 16) =     25.43718  eV     1   --> B_1  D_3  S_3  

 **************************************************************************

 **************************************************************************

                    xk=(   0.06250,   0.03608,   0.00000  )

     Band symmetry, C_2v (mm2)  point group:

     e(  1 -  1) =    -65.99238  eV     1   --> A_1  D_1  S_1  
     e(  2 -  2) =    -32.77391  eV     1   --> A_1  D_1  S_1  
     e(  3 -  3) =    -32.77276  eV     1   --> B_1  D_3  S_3  
     e(  4 -  4) =    -32.75503  eV     1   --> B_2  D_4  S_4  
     e(  5 -  5) =     -3.14562  eV     1   --> A_1  D_1  S_1  
     e(  6 -  6) =      6.34877  eV     1   --> B_2  D_4  S_4  
     e(  7 -  7) =      9.23923  eV     1   --> A_1  D_1  S_1  
     e(  8 -  8) =      9.42792  eV     1   --> B_1  D_3  S_3  
     e(  9 -  9) =     10.97057  eV     1   --> A_1  D_1  S_1  
     e( 10 - 10) =     15.53755  eV     1   --> A_1  D_1  S_1  
     e( 11 - 11) =     15.87988  eV     1   --> B_1  D_3  S_3  
     e( 12 - 12) =     17.53325  eV     1   --> A_1  D_1  S_1  
     e( 13 - 13) =     18.95886  eV     1   --> B_2  D_4  S_4  
     e( 14 - 14) =     22.34692  eV     1   --> A_1  D_1  S_1  
     e( 15 - 15) =     25.18518  eV     1   --> A_1  D_1  S_1  
     e( 16 - 16) =     25.37549  eV     1   --> B_1  D_3  S_3  

 **************************************************************************

 **************************************************************************

                    xk=(   0.07500,   0.04330,   0.00000  )

     Band symmetry, C_2v (mm2)  point group:

     e(  1 -  1) =    -65.99232  eV     1   --> A_1  D_1  S_1  
     e(  2 -  2) =    -32.77456  eV     1   --> A_1  D_1  S_1  
     e(  3 -  3) =    -32.77292  eV     1   --> B_1  D_3  S_3  
     e(  4 -  4) =    -32.75493  eV     1   --> B_2  D_4  S_4  
     e(  5 -  5) =     -3.11557  eV     1   --> A_1  D_1  S_1  
     e(  6 -  6) =      6.37802  eV     1   --> B_2  D_4  S_4  
     e(  7 -  7) =      9.09232  eV     1   --> A_1  D_1  S_1  
     e(  8 -  8) =      9.35979  eV     1   --> B_1  D_3  S_3  
     e(  9 -  9) =     10.99763  eV     1   --> A_1  D_1  S_1  
     e( 10 - 10) =     15.51266  eV     1   --> A_1  D_1  S_1  
     e( 11 - 11) =     16.00855  eV     1   --> B_1  D_3  S_3  
     e( 12 - 12) =     17.60092  eV     1   --> A_1  D_1  S_1  
     e( 13 - 13) =     18.85392  eV     1   --> B_2  D_4  S_4  
     e( 14 - 14) =     22.49288  eV     1   --> A_1  D_1  S_1  
     e( 15 - 15) =     25.04476  eV     1   --> A_1  D_1  S_1  
     e( 16 - 16) =     25.30453  eV     1   --> B_1  D_3  S_3  

 **************************************************************************

 **************************************************************************

                    xk=(   0.08750,   0.05052,   0.00000  )

     Band symmetry, C_2v (mm2)  point group:

     e(  1 -  1) =    -65.99226  eV     1   --> A_1  D_1  S_1  
     e(  2 -  2) =    -32.77533  eV     1   --> A_1  D_1  S_1  
     e(  3 -  3) =    -32.77310  eV     1   --> B_1  D_3  S_3  
     e(  4 -  4) =    -32.75482  eV     1   --> B_2  D_4  S_4  
     e(  5 -  5) =     -3.08007  eV     1   --> A_1  D_1  S_1  
     e(  6 -  6) =      6.41256  eV     1   --> B_2  D_4  S_4  
     e(  7 -  7) =      8.92542  eV     1   --> A_1  D_1  S_1  
     e(  8 -  8) =      9.28302  eV     1   --> B_1  D_3  S_3  
     e(  9 -  9) =     11.02986  eV     1   --> A_1  D_1  S_1  
     e( 10 - 10) =     15.47931  eV     1   --> A_1  D_1  S_1  
     e( 11 - 11) =     16.15672  eV     1   --> B_1  D_3  S_3  
     e( 12 - 12) =     17.68037  eV     1   --> A_1  D_1  S_1  
     e( 13 - 13) =     18.73196  eV     1   --> B_2  D_4  S_4  
     e( 14 - 14) =     22.66064  eV     1   --> A_1  D_1  S_1  
     e( 15 - 15) =     24.89287  eV     1   --> A_1  D_1  S_1  
     e( 16 - 16) =     25.22614  eV     1   --> B_1  D_3  S_3  

 **************************************************************************

 **************************************************************************

                    xk=(   0.10000,   0.05774,   0.00000  )

     Band symmetry, C_2v (mm2)  point group:

     e(  1 -  1) =    -65.99218  eV     1   --> A_1  D_1  S_1  
     e(  2 -  2) =    -32.77620  eV     1   --> A_1  D_1  S_1  
     e(  3 -  3) =    -32.77331  eV     1   --> B_1  D_3  S_3  
     e(  4 -  4) =    -32.75469  eV     1   --> B_2  D_4  S_4  
     e(  5 -  5) =     -3.03913  eV     1   --> A_1  D_1  S_1  
     e(  6 -  6) =      6.45237  eV     1   --> B_2  D_4  S_4  
     e(  7 -  7) =      8.74101  eV     1   --> A_1  D_1  S_1  
     e(  8 -  8) =      9.19901  eV     1   --> B_1  D_3  S_3  
     e(  9 -  9) =     11.06725  eV     1   --> A_1  D_1  S_1  
     e( 10 - 10) =     15.43749  eV     1   --> A_1  D_1  S_1  
     e( 11 - 11) =     16.32292  eV     1   --> B_1  D_3  S_3  
     e( 12 - 12) =     17.76984  eV     1   --> A_1  D_1  S_1  
     e( 13 - 13) =     18.59389  eV     1   --> B_2  D_4  S_4  
     e( 14 - 14) =     22.84824  eV     1   --> A_1  D_1  S_1  
     e( 15 - 15) =     24.73381  eV     1   --> A_1  D_1  S_1  
     e( 16 - 16) =     25.14205  eV     1   --> B_1  D_3  S_3  

 **************************************************************************

 **************************************************************************

                    xk=(   0.11250,   0.06495,   0.00000  )

     Band symmetry, C_2v (mm2)  point group:

     e(  1 -  1) =    -65.99210  eV     1   --> A_1  D_1  S_1  
     e(  2 -  2) =    -32.77717  eV     1   --> A_1  D_1  S_1  
     e(  3 -  3) =    -32.77355  eV     1   --> B_1  D_3  S_3  
     e(  4 -  4) =    -32.75455  eV     1   --> B_2  D_4  S_4  
     e(  5 -  5) =     -2.99278  eV     1   --> A_1  D_1  S_1  
     e(  6 -  6) =      6.49743  eV     1   --> B_2  D_4  S_4  
     e(  7 -  7) =      8.54148  eV     1   --> A_1  D_1  S_1  
     e(  8 -  8) =      9.10913  eV     1   --> B_1  D_3  S_3  
     e(  9 -  9) =     11.10974  eV     1   --> A_1  D_1  S_1  
     e( 10 - 10) =     15.38775  eV     1   --> A_1  D_1  S_1  
     e( 11 - 11) =     16.50571  eV     1   --> B_1  D_3  S_3  
     e( 12 - 12) =     17.86695  eV     1   --> A_1  D_1  S_1  
     e( 13 - 13) =     18.44073  eV     1   --> B_2  D_4  S_4  
     e( 14 - 14) =     23.05366  eV     1   --> A_1  D_1  S_1  
     e( 15 - 15) =     24.57159  eV     1   --> A_1  D_1  S_1  
     e( 16 - 16) =     25.05381  eV     1   --> B_1  D_3  S_3  

 **************************************************************************

 **************************************************************************

                    xk=(   0.12500,   0.07217,   0.00000  )

     Band symmetry, C_2v (mm2)  point group:

     e(  1 -  1) =    -65.99201  eV     1   --> A_1  D_1  S_1  
     e(  2 -  2) =    -32.77823  eV     1   --> A_1  D_1  S_1  
     e(  3 -  3) =    -32.77381  eV     1   --> B_1  D_3  S_3  
     e(  4 -  4) =    -32.75439  eV     1   --> B_2  D_4  S_4  
     e(  5 -  5) =     -2.94101  eV     1   --> A_1  D_1  S_1  
     e(  6 -  6) =      6.54772  eV     1   --> B_2  D_4  S_4  
     e(  7 -  7) =      8.32904  eV     1   --> A_1  D_1  S_1  
     e(  8 -  8) =      9.01464  eV     1   --> B_1  D_3  S_3  
     e(  9 -  9) =     11.15725  eV     1   --> A_1  D_1  S_1  
     e( 10 - 10) =     15.33101  eV     1   --> A_1  D_1  S_1  
     e( 11 - 11) =     16.70371  eV     1   --> B_1  D_3  S_3  
     e( 12 - 12) =     17.96886  eV     1   --> A_1  D_1  S_1  
     e( 13 - 13) =     18.27354  eV     1   --> B_2  D_4  S_4  
     e( 14 - 14) =     23.27473  eV     1   --> A_1  D_1  S_1  
     e( 15 - 15) =     24.41000  eV     1   --> A_1  D_1  S_1  
     e( 16 - 16) =     24.96277  eV     1   --> B_1  D_3  S_3  

 **************************************************************************

 **************************************************************************

                    xk=(   0.13750,   0.07939,   0.00000  )

     Band symmetry, C_2v (mm2)  point group:

     e(  1 -  1) =    -65.99191  eV     1   --> A_1  D_1  S_1  
     e(  2 -  2) =    -32.77938  eV     1   --> A_1  D_1  S_1  
     e(  3 -  3) =    -32.77409  eV     1   --> B_1  D_3  S_3  
     e(  4 -  4) =    -32.75422  eV     1   --> B_2  D_4  S_4  
     e(  5 -  5) =     -2.88386  eV     1   --> A_1  D_1  S_1  
     e(  6 -  6) =      6.60320  eV     1   --> B_2  D_4  S_4  
     e(  7 -  7) =      8.10572  eV     1   --> A_1  D_1  S_1  
     e(  8 -  8) =      8.91671  eV     1   --> B_1  D_3  S_3  
     e(  9 -  9) =     11.20971  eV     1   --> A_1  D_1  S_1  
     e( 10 - 10) =     15.26843  eV     1   --> A_1  D_1  S_1  
     e( 11 - 11) =     16.91561  eV     1   --> B_1  D_3  S_3  
     e( 12 - 12) =     18.07242  eV     1   --> A_1  D_1  S_1  
     e( 13 - 13) =     18.09345  eV     1   --> B_2  D_4  S_4  
     e( 14 - 14) =     23.50893  eV     1   --> A_1  D_1  S_1  
     e( 15 - 15) =     24.25296  eV     1   --> A_1  D_1  S_1  
     e( 16 - 16) =     24.87011  eV     1   --> B_1  D_3  S_3  

 **************************************************************************

 **************************************************************************

                    xk=(   0.15000,   0.08660,   0.00000  )

     Band symmetry, C_2v (mm2)  point group:

     e(  1 -  1) =    -65.99180  eV     1   --> A_1  D_1  S_1  
     e(  2 -  2) =    -32.78061  eV     1   --> A_1  D_1  S_1  
     e(  3 -  3) =    -32.77439  eV     1   --> B_1  D_3  S_3  
     e(  4 -  4) =    -32.75404  eV     1   --> B_2  D_4  S_4  
     e(  5 -  5) =     -2.82133  eV     1   --> A_1  D_1  S_1  
     e(  6 -  6) =      6.66385  eV     1   --> B_2  D_4  S_4  
     e(  7 -  7) =      7.87334  eV     1   --> A_1  D_1  S_1  
     e(  8 -  8) =      8.81643  eV     1   --> B_1  D_3  S_3  
     e(  9 -  9) =     11.26701  eV     1   --> A_1  D_1  S_1  
     e( 10 - 10) =     15.20123  eV     1   --> A_1  D_1  S_1  
     e( 11 - 11) =     17.14022  eV     1   --> B_1  D_3  S_3  
     e( 12 - 12) =     17.90161  eV     1   --> B_2  D_4  S_4  
     e( 13 - 13) =     18.17431  eV     1   --> A_1  D_1  S_1  
     e( 14 - 14) =     23.75160  eV     1   --> A_1  D_1  S_1  
     e( 15 - 15) =     24.10635  eV     1   --> A_1  D_1  S_1  
     e( 16 - 16) =     24.76815  eV     1   --> B_2  D_4  S_4  

 **************************************************************************

 **************************************************************************

                    xk=(   0.16250,   0.09382,   0.00000  )

     Band symmetry, C_2v (mm2)  point group:

     e(  1 -  1) =    -65.99169  eV     1   --> A_1  D_1  S_1  
     e(  2 -  2) =    -32.78191  eV     1   --> A_1  D_1  S_1  
     e(  3 -  3) =    -32.77470  eV     1   --> B_1  D_3  S_3  
     e(  4 -  4) =    -32.75385  eV     1   --> B_2  D_4  S_4  
     e(  5 -  5) =     -2.75344  eV     1   --> A_1  D_1  S_1  
     e(  6 -  6) =      6.72963  eV     1   --> B_2  D_4  S_4  
     e(  7 -  7) =      7.63351  eV     1   --> A_1  D_1  S_1  
     e(  8 -  8) =      8.71473  eV     1   --> B_1  D_3  S_3  
     e(  9 -  9) =     11.32901  eV     1   --> A_1  D_1  S_1  
     e( 10 - 10) =     15.13062  eV     1   --> A_1  D_1  S_1  
     e( 11 - 11) =     17.37642  eV     1   --> B_1  D_3  S_3  
     e( 12 - 12) =     17.69919  eV     1   --> B_2  D_4  S_4  
     e( 13 - 13) =     18.27112  eV     1   --> A_1  D_1  S_1  
     e( 14 - 14) =     23.92341  eV     1   --> A_1  D_1  S_1  
     e( 15 - 15) =     24.05065  eV     1   --> A_1  D_1  S_1  
     e( 16 - 16) =     24.53755  eV     1   --> B_2  D_4  S_4  

 **************************************************************************

 **************************************************************************

                    xk=(   0.17500,   0.10104,   0.00000  )

     Band symmetry, C_2v (mm2)  point group:

     e(  1 -  1) =    -65.99158  eV     1   --> A_1  D_1  S_1  
     e(  2 -  2) =    -32.78327  eV     1   --> A_1  D_1  S_1  
     e(  3 -  3) =    -32.77503  eV     1   --> B_1  D_3  S_3  
     e(  4 -  4) =    -32.75365  eV     1   --> B_2  D_4  S_4  
     e(  5 -  5) =     -2.68021  eV     1   --> A_1  D_1  S_1  
     e(  6 -  6) =      6.80050  eV     1   --> B_2  D_4  S_4  
     e(  7 -  7) =      7.38765  eV     1   --> A_1  D_1  S_1  
     e(  8 -  8) =      8.61247  eV     1   --> B_1  D_3  S_3  
     e(  9 -  9) =     11.39560  eV     1   --> A_1  D_1  S_1  
     e( 10 - 10) =     15.05771  eV     1   --> A_1  D_1  S_1  
     e( 11 - 11) =     17.48737  eV     1   --> B_2  D_4  S_4  
     e( 12 - 12) =     17.62315  eV     1   --> B_1  D_3  S_3  
     e( 13 - 13) =     18.35945  eV     1   --> A_1  D_1  S_1  
     e( 14 - 14) =     23.82215  eV     1   --> A_1  D_1  S_1  
     e( 15 - 15) =     24.28905  eV     1   --> A_1  D_1  S_1  
     e( 16 - 16) =     24.31895  eV     1   --> B_2  D_4  S_4  

 **************************************************************************

 **************************************************************************

                    xk=(   0.18750,   0.10825,   0.00000  )

     Band symmetry, C_2v (mm2)  point group:

     e(  1 -  1) =    -65.99145  eV     1   --> A_1  D_1  S_1  
     e(  2 -  2) =    -32.78469  eV     1   --> A_1  D_1  S_1  
     e(  3 -  3) =    -32.77538  eV     1   --> B_1  D_3  S_3  
     e(  4 -  4) =    -32.75344  eV     1   --> B_2  D_4  S_4  
     e(  5 -  5) =     -2.60167  eV     1   --> A_1  D_1  S_1  
     e(  6 -  6) =      6.87639  eV     1   --> B_2  D_4  S_4  
     e(  7 -  7) =      7.13701  eV     1   --> A_1  D_1  S_1  
     e(  8 -  8) =      8.51039  eV     1   --> B_1  D_3  S_3  
     e(  9 -  9) =     11.46661  eV     1   --> A_1  D_1  S_1  
     e( 10 - 10) =     14.98354  eV     1   --> A_1  D_1  S_1  
     e( 11 - 11) =     17.26732  eV     1   --> B_2  D_4  S_4  
     e( 12 - 12) =     17.87945  eV     1   --> B_1  D_3  S_3  
     e( 13 - 13) =     18.43594  eV     1   --> A_1  D_1  S_1  
     e( 14 - 14) =     23.71447  eV     1   --> A_1  D_1  S_1  
     e( 15 - 15) =     24.11207  eV     1   --> B_2  D_4  S_4  
     e( 16 - 16) =     24.50090  eV     1   --> B_1  D_3  S_3  

 **************************************************************************

 **************************************************************************

                    xk=(   0.20000,   0.11547,   0.00000  )

     Band symmetry, C_2v (mm2)  point group:

     e(  1 -  1) =    -65.99133  eV     1   --> A_1  D_1  S_1  
     e(  2 -  2) =    -32.78616  eV     1   --> A_1  D_1  S_1  
     e(  3 -  3) =    -32.77574  eV     1   --> B_1  D_3  S_3  
     e(  4 -  4) =    -32.75322  eV     1   --> B_2  D_4  S_4  
     e(  5 -  5) =     -2.51784  eV     1   --> A_1  D_1  S_1  
     e(  6 -  6) =      6.88268  eV     1   --> A_1  D_1  S_1  
     e(  7 -  7) =      6.95725  eV     1   --> B_2  D_4  S_4  
     e(  8 -  8) =      8.40915  eV     1   --> B_1  D_3  S_3  
     e(  9 -  9) =     11.54188  eV     1   --> A_1  D_1  S_1  
     e( 10 - 10) =     14.90902  eV     1   --> A_1  D_1  S_1  
     e( 11 - 11) =     17.04018  eV     1   --> B_2  D_4  S_4  
     e( 12 - 12) =     18.14439  eV     1   --> B_1  D_3  S_3  
     e( 13 - 13) =     18.49744  eV     1   --> A_1  D_1  S_1  
     e( 14 - 14) =     23.62459  eV     1   --> A_1  D_1  S_1  
     e( 15 - 15) =     23.91661  eV     1   --> B_2  D_4  S_4  
     e( 16 - 16) =     24.41232  eV     1   --> B_1  D_3  S_3  

 **************************************************************************

 **************************************************************************

                    xk=(   0.21250,   0.12269,   0.00000  )

     Band symmetry, C_2v (mm2)  point group:

     e(  1 -  1) =    -65.99120  eV     1   --> A_1  D_1  S_1  
     e(  2 -  2) =    -32.78766  eV     1   --> A_1  D_1  S_1  
     e(  3 -  3) =    -32.77610  eV     1   --> B_1  D_3  S_3  
     e(  4 -  4) =    -32.75300  eV     1   --> B_2  D_4  S_4  
     e(  5 -  5) =     -2.42874  eV     1   --> A_1  D_1  S_1  
     e(  6 -  6) =      6.62563  eV     1   --> A_1  D_1  S_1  
     e(  7 -  7) =      7.04301  eV     1   --> B_2  D_4  S_4  
     e(  8 -  8) =      8.30932  eV     1   --> B_1  D_3  S_3  
     e(  9 -  9) =     11.62119  eV     1   --> A_1  D_1  S_1  
     e( 10 - 10) =     14.83500  eV     1   --> A_1  D_1  S_1  
     e( 11 - 11) =     16.80709  eV     1   --> B_2  D_4  S_4  
     e( 12 - 12) =     18.41710  eV     1   --> B_1  D_3  S_3  
     e( 13 - 13) =     18.54112  eV     1   --> A_1  D_1  S_1  
     e( 14 - 14) =     23.55659  eV     1   --> A_1  D_1  S_1  
     e( 15 - 15) =     23.73221  eV     1   --> B_2  D_4  S_4  
     e( 16 - 16) =     24.32627  eV     1   --> B_1  D_3  S_3  

 **************************************************************************

 **************************************************************************

                    xk=(   0.22500,   0.12990,   0.00000  )

     Band symmetry, C_2v (mm2)  point group:

     e(  1 -  1) =    -65.99106  eV     1   --> A_1  D_1  S_1  
     e(  2 -  2) =    -32.78920  eV     1   --> A_1  D_1  S_1  
     e(  3 -  3) =    -32.77648  eV     1   --> B_1  D_3  S_3  
     e(  4 -  4) =    -32.75277  eV     1   --> B_2  D_4  S_4  
     e(  5 -  5) =     -2.33441  eV     1   --> A_1  D_1  S_1  
     e(  6 -  6) =      6.36669  eV     1   --> A_1  D_1  S_1  
     e(  7 -  7) =      7.13359  eV     1   --> B_2  D_4  S_4  
     e(  8 -  8) =      8.21140  eV     1   --> B_1  D_3  S_3  
     e(  9 -  9) =     11.70433  eV     1   --> A_1  D_1  S_1  
     e( 10 - 10) =     14.76222  eV     1   --> A_1  D_1  S_1  
     e( 11 - 11) =     16.56913  eV     1   --> B_2  D_4  S_4  
     e( 12 - 12) =     18.56469  eV     1   --> A_1  D_1  S_1  
     e( 13 - 13) =     18.69671  eV     1   --> B_1  D_3  S_3  
     e( 14 - 14) =     23.51297  eV     1   --> A_1  D_1  S_1  
     e( 15 - 15) =     23.55851  eV     1   --> B_2  D_4  S_4  
     e( 16 - 16) =     24.24317  eV     1   --> B_1  D_3  S_3  

 **************************************************************************

 **************************************************************************

                    xk=(   0.23750,   0.13712,   0.00000  )

     Band symmetry, C_2v (mm2)  point group:

     e(  1 -  1) =    -65.99093  eV     1   --> A_1  D_1  S_1  
     e(  2 -  2) =    -32.79075  eV     1   --> A_1  D_1  S_1  
     e(  3 -  3) =    -32.77685  eV     1   --> B_1  D_3  S_3  
     e(  4 -  4) =    -32.75254  eV     1   --> B_2  D_4  S_4  
     e(  5 -  5) =     -2.23487  eV     1   --> A_1  D_1  S_1  
     e(  6 -  6) =      6.10661  eV     1   --> A_1  D_1  S_1  
     e(  7 -  7) =      7.22888  eV     1   --> B_2  D_4  S_4  
     e(  8 -  8) =      8.11583  eV     1   --> B_1  D_3  S_3  
     e(  9 -  9) =     11.79103  eV     1   --> A_1  D_1  S_1  
     e( 10 - 10) =     14.69139  eV     1   --> A_1  D_1  S_1  
     e( 11 - 11) =     16.32734  eV     1   --> B_2  D_4  S_4  
     e( 12 - 12) =     18.56662  eV     1   --> A_1  D_1  S_1  
     e( 13 - 13) =     18.98233  eV     1   --> B_1  D_3  S_3  
     e( 14 - 14) =     23.39513  eV     1   --> B_2  D_4  S_4  
     e( 15 - 15) =     23.49536  eV     1   --> A_1  D_1  S_1  
     e( 16 - 16) =     24.16340  eV     1   --> B_1  D_3  S_3  

 **************************************************************************

 **************************************************************************

                    xk=(   0.25000,   0.14434,   0.00000  )

     Band symmetry, C_2v (mm2)  point group:

     e(  1 -  1) =    -65.99080  eV     1   --> A_1  D_1  S_1  
     e(  2 -  2) =    -32.79231  eV     1   --> A_1  D_1  S_1  
     e(  3 -  3) =    -32.77723  eV     1   --> B_1  D_3  S_3  
     e(  4 -  4) =    -32.75231  eV     1   --> B_2  D_4  S_4  
     e(  5 -  5) =     -2.13016  eV     1   --> A_1  D_1  S_1  
     e(  6 -  6) =      5.84604  eV     1   --> A_1  D_1  S_1  
     e(  7 -  7) =      7.32878  eV     1   --> B_2  D_4  S_4  
     e(  8 -  8) =      8.02299  eV     1   --> B_1  D_3  S_3  
     e(  9 -  9) =     11.88096  eV     1   --> A_1  D_1  S_1  
     e( 10 - 10) =     14.62313  eV     1   --> A_1  D_1  S_1  
     e( 11 - 11) =     16.08275  eV     1   --> B_2  D_4  S_4  
     e( 12 - 12) =     18.54621  eV     1   --> A_1  D_1  S_1  
     e( 13 - 13) =     19.27308  eV     1   --> B_1  D_3  S_3  
     e( 14 - 14) =     23.24171  eV     1   --> B_2  D_4  S_4  
     e( 15 - 15) =     23.50449  eV     1   --> A_1  D_1  S_1  
     e( 16 - 16) =     24.08732  eV     1   --> B_1  D_3  S_3  

 **************************************************************************

 **************************************************************************

                    xk=(   0.26250,   0.15155,   0.00000  )

     Band symmetry, C_2v (mm2)  point group:

     e(  1 -  1) =    -65.99066  eV     1   --> A_1  D_1  S_1  
     e(  2 -  2) =    -32.79387  eV     1   --> A_1  D_1  S_1  
     e(  3 -  3) =    -32.77761  eV     1   --> B_1  D_3  S_3  
     e(  4 -  4) =    -32.75208  eV     1   --> B_2  D_4  S_4  
     e(  5 -  5) =     -2.02031  eV     1   --> A_1  D_1  S_1  
     e(  6 -  6) =      5.58556  eV     1   --> A_1  D_1  S_1  
     e(  7 -  7) =      7.43315  eV     1   --> B_2  D_4  S_4  
     e(  8 -  8) =      7.93321  eV     1   --> B_1  D_3  S_3  
     e(  9 -  9) =     11.97376  eV     1   --> A_1  D_1  S_1  
     e( 10 - 10) =     14.55809  eV     1   --> A_1  D_1  S_1  
     e( 11 - 11) =     15.83632  eV     1   --> B_2  D_4  S_4  
     e( 12 - 12) =     18.50371  eV     1   --> A_1  D_1  S_1  
     e( 13 - 13) =     19.56799  eV     1   --> B_1  D_3  S_3  
     e( 14 - 14) =     23.09789  eV     1   --> B_2  D_4  S_4  
     e( 15 - 15) =     23.54017  eV     1   --> A_1  D_1  S_1  
     e( 16 - 16) =     24.01533  eV     1   --> B_1  D_3  S_3  

 **************************************************************************

 **************************************************************************

                    xk=(   0.27500,   0.15877,   0.00000  )

     Band symmetry, C_2v (mm2)  point group:

     e(  1 -  1) =    -65.99053  eV     1   --> A_1  D_1  S_1  
     e(  2 -  2) =    -32.79542  eV     1   --> A_1  D_1  S_1  
     e(  3 -  3) =    -32.77799  eV     1   --> B_1  D_3  S_3  
     e(  4 -  4) =    -32.75185  eV     1   --> B_2  D_4  S_4  
     e(  5 -  5) =     -1.90537  eV     1   --> A_1  D_1  S_1  
     e(  6 -  6) =      5.32567  eV     1   --> A_1  D_1  S_1  
     e(  7 -  7) =      7.54181  eV     1   --> B_2  D_4  S_4  
     e(  8 -  8) =      7.84679  eV     1   --> B_1  D_3  S_3  
     e(  9 -  9) =     12.06897  eV     1   --> A_1  D_1  S_1  
     e( 10 - 10) =     14.49688  eV     1   --> A_1  D_1  S_1  
     e( 11 - 11) =     15.58898  eV     1   --> B_2  D_4  S_4  
     e( 12 - 12) =     18.44022  eV     1   --> A_1  D_1  S_1  
     e( 13 - 13) =     19.86601  eV     1   --> B_1  D_3  S_3  
     e( 14 - 14) =     22.96331  eV     1   --> B_2  D_4  S_4  
     e( 15 - 15) =     23.60137  eV     1   --> A_1  D_1  S_1  
     e( 16 - 16) =     23.94782  eV     1   --> B_1  D_3  S_3  

 **************************************************************************

 **************************************************************************

                    xk=(   0.28750,   0.16599,   0.00000  )

     Band symmetry, C_2v (mm2)  point group:

     e(  1 -  1) =    -65.99040  eV     1   --> A_1  D_1  S_1  
     e(  2 -  2) =    -32.79695  eV     1   --> A_1  D_1  S_1  
     e(  3 -  3) =    -32.77837  eV     1   --> B_1  D_3  S_3  
     e(  4 -  4) =    -32.75163  eV     1   --> B_2  D_4  S_4  
     e(  5 -  5) =     -1.78537  eV     1   --> A_1  D_1  S_1  
     e(  6 -  6) =      5.06684  eV     1   --> A_1  D_1  S_1  
     e(  7 -  7) =      7.65459  eV     1   --> B_2  D_4  S_4  
     e(  8 -  8) =      7.76398  eV     1   --> B_1  D_3  S_3  
     e(  9 -  9) =     12.16607  eV     1   --> A_1  D_1  S_1  
     e( 10 - 10) =     14.44013  eV     1   --> A_1  D_1  S_1  
     e( 11 - 11) =     15.34165  eV     1   --> B_2  D_4  S_4  
     e( 12 - 12) =     18.35752  eV     1   --> A_1  D_1  S_1  
     e( 13 - 13) =     20.16596  eV     1   --> B_1  D_3  S_3  
     e( 14 - 14) =     22.83765  eV     1   --> B_2  D_4  S_4  
     e( 15 - 15) =     23.68639  eV     1   --> A_1  D_1  S_1  
     e( 16 - 16) =     23.88526  eV     1   --> B_1  D_3  S_3  

 **************************************************************************

 **************************************************************************

                    xk=(   0.30000,   0.17321,   0.00000  )

     Band symmetry, C_2v (mm2)  point group:

     e(  1 -  1) =    -65.99027  eV     1   --> A_1  D_1  S_1  
     e(  2 -  2) =    -32.79845  eV     1   --> A_1  D_1  S_1  
     e(  3 -  3) =    -32.77873  eV     1   --> B_1  D_3  S_3  
     e(  4 -  4) =    -32.75140  eV     1   --> B_2  D_4  S_4  
     e(  5 -  5) =     -1.66037  eV     1   --> A_1  D_1  S_1  
     e(  6 -  6) =      4.80947  eV     1   --> A_1  D_1  S_1  
     e(  7 -  7) =      7.68500  eV     1   --> B_1  D_3  S_3  
     e(  8 -  8) =      7.77124  eV     1   --> B_2  D_4  S_4  
     e(  9 -  9) =     12.26439  eV     1   --> A_1  D_1  S_1  
     e( 10 - 10) =     14.38852  eV     1   --> A_1  D_1  S_1  
     e( 11 - 11) =     15.09519  eV     1   --> B_2  D_4  S_4  
     e( 12 - 12) =     18.25782  eV     1   --> A_1  D_1  S_1  
     e( 13 - 13) =     20.46643  eV     1   --> B_1  D_3  S_3  
     e( 14 - 14) =     22.72060  eV     1   --> B_2  D_4  S_4  
     e( 15 - 15) =     23.79311  eV     1   --> A_1  D_1  S_1  
     e( 16 - 16) =     23.82822  eV     1   --> B_1  D_3  S_3  

 **************************************************************************

 **************************************************************************

                    xk=(   0.31250,   0.18042,   0.00000  )

     Band symmetry, C_2v (mm2)  point group:

     e(  1 -  1) =    -65.99014  eV     1   --> A_1  D_1  S_1  
     e(  2 -  2) =    -32.79991  eV     1   --> A_1  D_1  S_1  
     e(  3 -  3) =    -32.77909  eV     1   --> B_1  D_3  S_3  
     e(  4 -  4) =    -32.75119  eV     1   --> B_2  D_4  S_4  
     e(  5 -  5) =     -1.53042  eV     1   --> A_1  D_1  S_1  
     e(  6 -  6) =      4.55393  eV     1   --> A_1  D_1  S_1  
     e(  7 -  7) =      7.61005  eV     1   --> B_1  D_3  S_3  
     e(  8 -  8) =      7.89148  eV     1   --> B_2  D_4  S_4  
     e(  9 -  9) =     12.36314  eV     1   --> A_1  D_1  S_1  
     e( 10 - 10) =     14.34281  eV     1   --> A_1  D_1  S_1  
     e( 11 - 11) =     14.85049  eV     1   --> B_2  D_4  S_4  
     e( 12 - 12) =     18.14362  eV     1   --> A_1  D_1  S_1  
     e( 13 - 13) =     20.76575  eV     1   --> B_1  D_3  S_3  
     e( 14 - 14) =     22.61189  eV     1   --> B_2  D_4  S_4  
     e( 15 - 15) =     23.77745  eV     1   --> B_1  D_3  S_3  
     e( 16 - 16) =     23.91916  eV     1   --> A_1  D_1  S_1  

 **************************************************************************

 **************************************************************************

                    xk=(   0.32500,   0.18764,   0.00000  )

     Band symmetry, C_2v (mm2)  point group:

     e(  1 -  1) =    -65.99002  eV     1   --> A_1  D_1  S_1  
     e(  2 -  2) =    -32.80132  eV     1   --> A_1  D_1  S_1  
     e(  3 -  3) =    -32.77943  eV     1   --> B_1  D_3  S_3  
     e(  4 -  4) =    -32.75098  eV     1   --> B_2  D_4  S_4  
     e(  5 -  5) =     -1.39559  eV     1   --> A_1  D_1  S_1  
     e(  6 -  6) =      4.30057  eV     1   --> A_1  D_1  S_1  
     e(  7 -  7) =      7.53930  eV     1   --> B_1  D_3  S_3  
     e(  8 -  8) =      8.01496  eV     1   --> B_2  D_4  S_4  
     e(  9 -  9) =     12.46137  eV     1   --> A_1  D_1  S_1  
     e( 10 - 10) =     14.30383  eV     1   --> A_1  D_1  S_1  
     e( 11 - 11) =     14.60843  eV     1   --> B_2  D_4  S_4  
     e( 12 - 12) =     18.01745  eV     1   --> A_1  D_1  S_1  
     e( 13 - 13) =     21.06182  eV     1   --> B_1  D_3  S_3  
     e( 14 - 14) =     22.51124  eV     1   --> B_2  D_4  S_4  
     e( 15 - 15) =     23.73394  eV     1   --> B_1  D_3  S_3  
     e( 16 - 16) =     24.06214  eV     1   --> A_1  D_1  S_1  

 **************************************************************************

 **************************************************************************

                    xk=(   0.33750,   0.19486,   0.00000  )

     Band symmetry, C_2v (mm2)  point group:

     e(  1 -  1) =    -65.98990  eV     1   --> A_1  D_1  S_1  
     e(  2 -  2) =    -32.80268  eV     1   --> A_1  D_1  S_1  
     e(  3 -  3) =    -32.77977  eV     1   --> B_1  D_3  S_3  
     e(  4 -  4) =    -32.75077  eV     1   --> B_2  D_4  S_4  
     e(  5 -  5) =     -1.25594  eV     1   --> A_1  D_1  S_1  
     e(  6 -  6) =      4.04971  eV     1   --> A_1  D_1  S_1  
     e(  7 -  7) =      7.47290  eV     1   --> B_1  D_3  S_3  
     e(  8 -  8) =      8.14126  eV     1   --> B_2  D_4  S_4  
     e(  9 -  9) =     12.55791  eV     1   --> A_1  D_1  S_1  
     e( 10 - 10) =     14.27251  eV     1   --> A_1  D_1  S_1  
     e( 11 - 11) =     14.36991  eV     1   --> B_2  D_4  S_4  
     e( 12 - 12) =     17.88180  eV     1   --> A_1  D_1  S_1  
     e( 13 - 13) =     21.35193  eV     1   --> B_1  D_3  S_3  
     e( 14 - 14) =     22.41843  eV     1   --> B_2  D_4  S_4  
     e( 15 - 15) =     23.69912  eV     1   --> B_1  D_3  S_3  
     e( 16 - 16) =     24.07271  eV     1   --> A_2  D_2  S_2  

 **************************************************************************

 **************************************************************************

                    xk=(   0.35000,   0.20207,   0.00000  )

     Band symmetry, C_2v (mm2)  point group:

     e(  1 -  1) =    -65.98979  eV     1   --> A_1  D_1  S_1  
     e(  2 -  2) =    -32.80398  eV     1   --> A_1  D_1  S_1  
     e(  3 -  3) =    -32.78008  eV     1   --> B_1  D_3  S_3  
     e(  4 -  4) =    -32.75058  eV     1   --> B_2  D_4  S_4  
     e(  5 -  5) =     -1.11157  eV     1   --> A_1  D_1  S_1  
     e(  6 -  6) =      3.80164  eV     1   --> A_1  D_1  S_1  
     e(  7 -  7) =      7.41097  eV     1   --> B_1  D_3  S_3  
     e(  8 -  8) =      8.26985  eV     1   --> B_2  D_4  S_4  
     e(  9 -  9) =     12.65140  eV     1   --> A_1  D_1  S_1  
     e( 10 - 10) =     14.13589  eV     1   --> B_2  D_4  S_4  
     e( 11 - 11) =     14.24991  eV     1   --> A_1  D_1  S_1  
     e( 12 - 12) =     17.73905  eV     1   --> A_1  D_1  S_1  
     e( 13 - 13) =     21.63252  eV     1   --> B_1  D_3  S_3  
     e( 14 - 14) =     22.33324  eV     1   --> B_2  D_4  S_4  
     e( 15 - 15) =     23.67505  eV     1   --> B_1  D_3  S_3  
     e( 16 - 16) =     23.99124  eV     1   --> A_2  D_2  S_2  

 **************************************************************************

 **************************************************************************

                    xk=(   0.36250,   0.20929,   0.00000  )

     Band symmetry, C_2v (mm2)  point group:

     e(  1 -  1) =    -65.98968  eV     1   --> A_1  D_1  S_1  
     e(  2 -  2) =    -32.80520  eV     1   --> A_1  D_1  S_1  
     e(  3 -  3) =    -32.78038  eV     1   --> B_1  D_3  S_3  
     e(  4 -  4) =    -32.75040  eV     1   --> B_2  D_4  S_4  
     e(  5 -  5) =     -0.96258  eV     1   --> A_1  D_1  S_1  
     e(  6 -  6) =      3.55667  eV     1   --> A_1  D_1  S_1  
     e(  7 -  7) =      7.35364  eV     1   --> B_1  D_3  S_3  
     e(  8 -  8) =      8.40006  eV     1   --> B_2  D_4  S_4  
     e(  9 -  9) =     12.74029  eV     1   --> A_1  D_1  S_1  
     e( 10 - 10) =     13.90742  eV     1   --> B_2  D_4  S_4  
     e( 11 - 11) =     14.23714  eV     1   --> A_1  D_1  S_1  
     e( 12 - 12) =     17.59146  eV     1   --> A_1  D_1  S_1  
     e( 13 - 13) =     21.89875  eV     1   --> B_1  D_3  S_3  
     e( 14 - 14) =     22.25549  eV     1   --> B_2  D_4  S_4  
     e( 15 - 15) =     23.66479  eV     1   --> B_1  D_3  S_3  
     e( 16 - 16) =     23.91628  eV     1   --> A_2  D_2  S_2  

 **************************************************************************

 **************************************************************************

                    xk=(   0.37500,   0.21651,   0.00000  )

     Band symmetry, C_2v (mm2)  point group:

     e(  1 -  1) =    -65.98958  eV     1   --> A_1  D_1  S_1  
     e(  2 -  2) =    -32.80634  eV     1   --> A_1  D_1  S_1  
     e(  3 -  3) =    -32.78066  eV     1   --> B_1  D_3  S_3  
     e(  4 -  4) =    -32.75023  eV     1   --> B_2  D_4  S_4  
     e(  5 -  5) =     -0.80911  eV     1   --> A_1  D_1  S_1  
     e(  6 -  6) =      3.31508  eV     1   --> A_1  D_1  S_1  
     e(  7 -  7) =      7.30100  eV     1   --> B_1  D_3  S_3  
     e(  8 -  8) =      8.53105  eV     1   --> B_2  D_4  S_4  
     e(  9 -  9) =     12.82291  eV     1   --> A_1  D_1  S_1  
     e( 10 - 10) =     13.68568  eV     1   --> B_2  D_4  S_4  
     e( 11 - 11) =     14.23528  eV     1   --> A_1  D_1  S_1  
     e( 12 - 12) =     17.44120  eV     1   --> A_1  D_1  S_1  
     e( 13 - 13) =     22.14416  eV     1   --> B_1  D_3  S_3  
     e( 14 - 14) =     22.18502  eV     1   --> B_2  D_4  S_4  
     e( 15 - 15) =     23.67269  eV     1   --> B_1  D_3  S_3  
     e( 16 - 16) =     23.84782  eV     1   --> A_2  D_2  S_2  

 **************************************************************************

 **************************************************************************

                    xk=(   0.38750,   0.22372,   0.00000  )

     Band symmetry, C_2v (mm2)  point group:

     e(  1 -  1) =    -65.98949  eV     1   --> A_1  D_1  S_1  
     e(  2 -  2) =    -32.80740  eV     1   --> A_1  D_1  S_1  
     e(  3 -  3) =    -32.78092  eV     1   --> B_1  D_3  S_3  
     e(  4 -  4) =    -32.75008  eV     1   --> B_2  D_4  S_4  
     e(  5 -  5) =     -0.65134  eV     1   --> A_1  D_1  S_1  
     e(  6 -  6) =      3.07719  eV     1   --> A_1  D_1  S_1  
     e(  7 -  7) =      7.25314  eV     1   --> B_1  D_3  S_3  
     e(  8 -  8) =      8.66177  eV     1   --> B_2  D_4  S_4  
     e(  9 -  9) =     12.89761  eV     1   --> A_1  D_1  S_1  
     e( 10 - 10) =     13.47203  eV     1   --> B_2  D_4  S_4  
     e( 11 - 11) =     14.24517  eV     1   --> A_1  D_1  S_1  
     e( 12 - 12) =     17.29040  eV     1   --> A_1  D_1  S_1  
     e( 13 - 13) =     22.12166  eV     1   --> B_2  D_4  S_4  
     e( 14 - 14) =     22.36059  eV     1   --> B_1  D_3  S_3  
     e( 15 - 15) =     23.70440  eV     1   --> B_1  D_3  S_3  
     e( 16 - 16) =     23.78587  eV     1   --> A_2  D_2  S_2  

 **************************************************************************

 **************************************************************************

                    xk=(   0.40000,   0.23094,   0.00000  )

     Band symmetry, C_2v (mm2)  point group:

     e(  1 -  1) =    -65.98941  eV     1   --> A_1  D_1  S_1  
     e(  2 -  2) =    -32.80836  eV     1   --> A_1  D_1  S_1  
     e(  3 -  3) =    -32.78115  eV     1   --> B_1  D_3  S_3  
     e(  4 -  4) =    -32.74993  eV     1   --> B_2  D_4  S_4  
     e(  5 -  5) =     -0.48951  eV     1   --> A_1  D_1  S_1  
     e(  6 -  6) =      2.84339  eV     1   --> A_1  D_1  S_1  
     e(  7 -  7) =      7.21013  eV     1   --> B_1  D_3  S_3  
     e(  8 -  8) =      8.79087  eV     1   --> B_2  D_4  S_4  
     e(  9 -  9) =     12.96302  eV     1   --> A_1  D_1  S_1  
     e( 10 - 10) =     13.26807  eV     1   --> B_2  D_4  S_4  
     e( 11 - 11) =     14.26713  eV     1   --> A_1  D_1  S_1  
     e( 12 - 12) =     17.14125  eV     1   --> A_1  D_1  S_1  
     e( 13 - 13) =     22.06530  eV     1   --> B_2  D_4  S_4  
     e( 14 - 14) =     22.53954  eV     1   --> B_1  D_3  S_3  
     e( 15 - 15) =     23.73044  eV     1   --> A_2  D_2  S_2  
     e( 16 - 16) =     23.76546  eV     1   --> B_1  D_3  S_3  

 **************************************************************************

 **************************************************************************

                    xk=(   0.41250,   0.23816,   0.00000  )

     Band symmetry, C_2v (mm2)  point group:

     e(  1 -  1) =    -65.98933  eV     1   --> A_1  D_1  S_1  
     e(  2 -  2) =    -32.80923  eV     1   --> A_1  D_1  S_1  
     e(  3 -  3) =    -32.78137  eV     1   --> B_1  D_3  S_3  
     e(  4 -  4) =    -32.74981  eV     1   --> B_2  D_4  S_4  
     e(  5 -  5) =     -0.32400  eV     1   --> A_1  D_1  S_1  
     e(  6 -  6) =      2.61414  eV     1   --> A_1  D_1  S_1  
     e(  7 -  7) =      7.17204  eV     1   --> B_1  D_3  S_3  
     e(  8 -  8) =      8.91660  eV     1   --> B_2  D_4  S_4  
     e(  9 -  9) =     13.01828  eV     1   --> A_1  D_1  S_1  
     e( 10 - 10) =     13.07578  eV     1   --> B_2  D_4  S_4  
     e( 11 - 11) =     14.30062  eV     1   --> A_1  D_1  S_1  
     e( 12 - 12) =     16.99608  eV     1   --> A_1  D_1  S_1  
     e( 13 - 13) =     22.01581  eV     1   --> B_2  D_4  S_4  
     e( 14 - 14) =     22.67572  eV     1   --> B_1  D_3  S_3  
     e( 15 - 15) =     23.68152  eV     1   --> A_2  D_2  S_2  
     e( 16 - 16) =     23.85768  eV     1   --> B_1  D_3  S_3  

 **************************************************************************

 **************************************************************************

                    xk=(   0.42500,   0.24537,   0.00000  )

     Band symmetry, C_2v (mm2)  point group:

     e(  1 -  1) =    -65.98927  eV     1   --> A_1  D_1  S_1  
     e(  2 -  2) =    -32.80998  eV     1   --> A_1  D_1  S_1  
     e(  3 -  3) =    -32.78155  eV     1   --> B_1  D_3  S_3  
     e(  4 -  4) =    -32.74969  eV     1   --> B_2  D_4  S_4  
     e(  5 -  5) =     -0.15535  eV     1   --> A_1  D_1  S_1  
     e(  6 -  6) =      2.39008  eV     1   --> A_1  D_1  S_1  
     e(  7 -  7) =      7.13893  eV     1   --> B_1  D_3  S_3  
     e(  8 -  8) =      9.03679  eV     1   --> B_2  D_4  S_4  
     e(  9 -  9) =     12.89753  eV     1   --> B_2  D_4  S_4  
     e( 10 - 10) =     13.06323  eV     1   --> A_1  D_1  S_1  
     e( 11 - 11) =     14.34395  eV     1   --> A_1  D_1  S_1  
     e( 12 - 12) =     16.85753  eV     1   --> A_1  D_1  S_1  
     e( 13 - 13) =     21.97311  eV     1   --> B_2  D_4  S_4  
     e( 14 - 14) =     22.77074  eV     1   --> B_1  D_3  S_3  
     e( 15 - 15) =     23.63912  eV     1   --> A_2  D_2  S_2  
     e( 16 - 16) =     23.97545  eV     1   --> B_1  D_3  S_3  

 **************************************************************************

 **************************************************************************

                    xk=(   0.43750,   0.25259,   0.00000  )

     Band symmetry, C_2v (mm2)  point group:

     e(  1 -  1) =    -65.98921  eV     1   --> A_1  D_1  S_1  
     e(  2 -  2) =    -32.81064  eV     1   --> A_1  D_1  S_1  
     e(  3 -  3) =    -32.78171  eV     1   --> B_1  D_3  S_3  
     e(  4 -  4) =    -32.74960  eV     1   --> B_2  D_4  S_4  
     e(  5 -  5) =      0.01551  eV     1   --> A_1  D_1  S_1  
     e(  6 -  6) =      2.17221  eV     1   --> A_1  D_1  S_1  
     e(  7 -  7) =      7.11083  eV     1   --> B_1  D_3  S_3  
     e(  8 -  8) =      9.14865  eV     1   --> B_2  D_4  S_4  
     e(  9 -  9) =     12.73627  eV     1   --> B_2  D_4  S_4  
     e( 10 - 10) =     13.09837  eV     1   --> A_1  D_1  S_1  
     e( 11 - 11) =     14.39415  eV     1   --> A_1  D_1  S_1  
     e( 12 - 12) =     16.72867  eV     1   --> A_1  D_1  S_1  
     e( 13 - 13) =     21.93711  eV     1   --> B_2  D_4  S_4  
     e( 14 - 14) =     22.83250  eV     1   --> B_1  D_3  S_3  
     e( 15 - 15) =     23.60324  eV     1   --> A_2  D_2  S_2  
     e( 16 - 16) =     24.10631  eV     1   --> B_1  D_3  S_3  

 **************************************************************************

 **************************************************************************

                    xk=(   0.45000,   0.25981,   0.00000  )

     Band symmetry, C_2v (mm2)  point group:

     e(  1 -  1) =    -65.98917  eV     1   --> A_1  D_1  S_1  
     e(  2 -  2) =    -32.81118  eV     1   --> A_1  D_1  S_1  
     e(  3 -  3) =    -32.78184  eV     1   --> B_1  D_3  S_3  
     e(  4 -  4) =    -32.74952  eV     1   --> B_2  D_4  S_4  
     e(  5 -  5) =      0.18689  eV     1   --> A_1  D_1  S_1  
     e(  6 -  6) =      1.96229  eV     1   --> A_1  D_1  S_1  
     e(  7 -  7) =      7.08780  eV     1   --> B_1  D_3  S_3  
     e(  8 -  8) =      9.24881  eV     1   --> B_2  D_4  S_4  
     e(  9 -  9) =     12.59551  eV     1   --> B_2  D_4  S_4  
     e( 10 - 10) =     13.12473  eV     1   --> A_1  D_1  S_1  
     e( 11 - 11) =     14.44702  eV     1   --> A_1  D_1  S_1  
     e( 12 - 12) =     16.61320  eV     1   --> A_1  D_1  S_1  
     e( 13 - 13) =     21.90774  eV     1   --> B_2  D_4  S_4  
     e( 14 - 14) =     22.87079  eV     1   --> B_1  D_3  S_3  
     e( 15 - 15) =     23.57388  eV     1   --> A_2  D_2  S_2  
     e( 16 - 16) =     24.23555  eV     1   --> B_1  D_3  S_3  

 **************************************************************************

 **************************************************************************

                    xk=(   0.46250,   0.26702,   0.00000  )

     Band symmetry, C_2v (mm2)  point group:

     e(  1 -  1) =    -65.98913  eV     1   --> A_1  D_1  S_1  
     e(  2 -  2) =    -32.81160  eV     1   --> A_1  D_1  S_1  
     e(  3 -  3) =    -32.78195  eV     1   --> B_1  D_3  S_3  
     e(  4 -  4) =    -32.74945  eV     1   --> B_2  D_4  S_4  
     e(  5 -  5) =      0.35538  eV     1   --> A_1  D_1  S_1  
     e(  6 -  6) =      1.76377  eV     1   --> A_1  D_1  S_1  
     e(  7 -  7) =      7.06985  eV     1   --> B_1  D_3  S_3  
     e(  8 -  8) =      9.33333  eV     1   --> B_2  D_4  S_4  
     e(  9 -  9) =     12.47931  eV     1   --> B_2  D_4  S_4  
     e( 10 - 10) =     13.14355  eV     1   --> A_1  D_1  S_1  
     e( 11 - 11) =     14.49736  eV     1   --> A_1  D_1  S_1  
     e( 12 - 12) =     16.51547  eV     1   --> A_1  D_1  S_1  
     e( 13 - 13) =     21.88496  eV     1   --> B_2  D_4  S_4  
     e( 14 - 14) =     22.89373  eV     1   --> B_1  D_3  S_3  
     e( 15 - 15) =     23.55104  eV     1   --> A_2  D_2  S_2  
     e( 16 - 16) =     24.34996  eV     1   --> B_1  D_3  S_3  

 **************************************************************************

 **************************************************************************

                    xk=(   0.47500,   0.27424,   0.00000  )

     Band symmetry, C_2v (mm2)  point group:

     e(  1 -  1) =    -65.98910  eV     1   --> A_1  D_1  S_1  
     e(  2 -  2) =    -32.81190  eV     1   --> A_1  D_1  S_1  
     e(  3 -  3) =    -32.78202  eV     1   --> B_1  D_3  S_3  
     e(  4 -  4) =    -32.74941  eV     1   --> B_2  D_4  S_4  
     e(  5 -  5) =      0.51319  eV     1   --> A_1  D_1  S_1  
     e(  6 -  6) =      1.58448  eV     1   --> A_1  D_1  S_1  
     e(  7 -  7) =      7.05701  eV     1   --> B_1  D_3  S_3  
     e(  8 -  8) =      9.39795  eV     1   --> B_2  D_4  S_4  
     e(  9 -  9) =     12.39200  eV     1   --> B_2  D_4  S_4  
     e( 10 - 10) =     13.15603  eV     1   --> A_1  D_1  S_1  
     e( 11 - 11) =     14.53936  eV     1   --> A_1  D_1  S_1  
     e( 12 - 12) =     16.44038  eV     1   --> A_1  D_1  S_1  
     e( 13 - 13) =     21.86871  eV     1   --> B_2  D_4  S_4  
     e( 14 - 14) =     22.90687  eV     1   --> B_1  D_3  S_3  
     e( 15 - 15) =     23.53473  eV     1   --> A_2  D_2  S_2  
     e( 16 - 16) =     24.43915  eV     1   --> B_1  D_3  S_3  

 **************************************************************************

 **************************************************************************

                    xk=(   0.48750,   0.28146,   0.00000  )

     Band symmetry, C_2v (mm2)  point group:

     e(  1 -  1) =    -65.98909  eV     1   --> A_1  D_1  S_1  
     e(  2 -  2) =    -32.81208  eV     1   --> A_1  D_1  S_1  
     e(  3 -  3) =    -32.78206  eV     1   --> B_1  D_3  S_3  
     e(  4 -  4) =    -32.74938  eV     1   --> B_2  D_4  S_4  
     e(  5 -  5) =      0.64064  eV     1   --> A_1  D_1  S_1  
     e(  6 -  6) =      1.44415  eV     1   --> A_1  D_1  S_1  
     e(  7 -  7) =      7.04931  eV     1   --> B_1  D_3  S_3  
     e(  8 -  8) =      9.43868  eV     1   --> B_2  D_4  S_4  
     e(  9 -  9) =     12.33762  eV     1   --> B_2  D_4  S_4  
     e( 10 - 10) =     13.16311  eV     1   --> A_1  D_1  S_1  
     e( 11 - 11) =     14.56742  eV     1   --> A_1  D_1  S_1  
     e( 12 - 12) =     16.39280  eV     1   --> A_1  D_1  S_1  
     e( 13 - 13) =     21.85897  eV     1   --> B_2  D_4  S_4  
     e( 14 - 14) =     22.91358  eV     1   --> B_1  D_3  S_3  
     e( 15 - 15) =     23.52495  eV     1   --> A_2  D_2  S_2  
     e( 16 - 16) =     24.49567  eV     1   --> B_1  D_3  S_3  

 **************************************************************************

 **************************************************************************

                    xk=(   0.50000,   0.28868,   0.00000  )

     point group D_2h (mmm) 
     there are  8 classes
     the character table:

       E     C2    C2'   C2''  i     s_v   s_v'  s_v''
A_g    1.00  1.00  1.00  1.00  1.00  1.00  1.00  1.00
B_1g   1.00  1.00 -1.00 -1.00  1.00  1.00 -1.00 -1.00
B_2g   1.00 -1.00  1.00 -1.00  1.00 -1.00  1.00 -1.00
B_3g   1.00 -1.00 -1.00  1.00  1.00 -1.00 -1.00  1.00
A_u    1.00  1.00  1.00  1.00 -1.00 -1.00 -1.00 -1.00
B_1u   1.00  1.00 -1.00 -1.00 -1.00 -1.00  1.00  1.00
B_2u   1.00 -1.00  1.00 -1.00 -1.00  1.00 -1.00  1.00
B_3u   1.00 -1.00 -1.00  1.00 -1.00  1.00  1.00 -1.00

     the symmetry operations in each class and the name of the first element:

     E        1
                                                                 
     C2       2
                                                                 
     C2'      4
                                                                 
     C2''     3
                                                                 
     i        5
                                                                 
     s_v      6
                                                                 
     s_v'     8
                                                                 
     s_v''    7
                                                                 

     Band symmetry, D_2h (mmm)  point group:

     e(  1 -  1) =    -65.98908  eV     1   --> A_g            
     e(  2 -  2) =    -32.81214  eV     1   --> B_3u           
     e(  3 -  3) =    -32.78208  eV     1   --> B_2u           
     e(  4 -  4) =    -32.74937  eV     1   --> B_1u           
     e(  5 -  5) =      0.69448  eV     1   --> B_3u           
     e(  6 -  6) =      1.38600  eV     1   --> A_g            
     e(  7 -  7) =      7.04674  eV     1   --> B_2u           
     e(  8 -  8) =      9.45262  eV     1   --> B_2g           
     e(  9 -  9) =     12.31913  eV     1   --> B_1u           
     e( 10 - 10) =     13.16540  eV     1   --> A_g            
     e( 11 - 11) =     14.57730  eV     1   --> B_3u           
     e( 12 - 12) =     16.37646  eV     1   --> A_g            
     e( 13 - 13) =     21.85573  eV     1   --> B_1u           
     e( 14 - 14) =     22.91563  eV     1   --> B_2u           
     e( 15 - 15) =     23.52168  eV     1   --> B_3g           
     e( 16 - 16) =     24.51502  eV     1   --> B_1g           

 **************************************************************************

 **************************************************************************

                    xk=(   0.49583,   0.29589,   0.00000  )

     point group C_2v (mm2) 
     there are  4 classes
     the character table:

       E     C2    s_v   s_v' 
A_1    1.00  1.00  1.00  1.00
A_2    1.00  1.00 -1.00 -1.00
B_1    1.00 -1.00  1.00 -1.00
B_2    1.00 -1.00 -1.00  1.00

     the symmetry operations in each class and the name of the first element:

     E        1
                                                                 
     C2       2
                                                                 
     s_v      4
                                                                 
     s_v'     3
                                                                 

     Band symmetry, C_2v (mm2)  point group:

     e(  1 -  1) =    -65.98908  eV     1   --> A_1  D_1  S_1  
     e(  2 -  2) =    -32.81213  eV     1   --> B_2  D_4  S_4  
     e(  3 -  3) =    -32.78210  eV     1   --> A_1  D_1  S_1  
     e(  4 -  4) =    -32.74937  eV     1   --> B_1  D_3  S_3  
     e(  5 -  5) =      0.69528  eV     1   --> B_2  D_4  S_4  
     e(  6 -  6) =      1.38682  eV     1   --> A_1  D_1  S_1  
     e(  7 -  7) =      7.04075  eV     1   --> A_1  D_1  S_1  
     e(  8 -  8) =      9.45363  eV     1   --> A_2  D_2  S_2  
     e(  9 -  9) =     12.31873  eV     1   --> B_1  D_3  S_3  
     e( 10 - 10) =     13.17193  eV     1   --> A_1  D_1  S_1  
     e( 11 - 11) =     14.57786  eV     1   --> B_2  D_4  S_4  
     e( 12 - 12) =     16.37767  eV     1   --> A_1  D_1  S_1  
     e( 13 - 13) =     21.83296  eV     1   --> B_1  D_3  S_3  
     e( 14 - 14) =     22.90977  eV     1   --> A_1  D_1  S_1  
     e( 15 - 15) =     23.54710  eV     1   --> B_1  D_3  S_3  
     e( 16 - 16) =     24.51027  eV     1   --> B_2  D_4  S_4  

 **************************************************************************

 **************************************************************************

                    xk=(   0.49167,   0.30311,   0.00000  )

     Band symmetry, C_2v (mm2)  point group:

     e(  1 -  1) =    -65.98908  eV     1   --> A_1  D_1  S_1  
     e(  2 -  2) =    -32.81211  eV     1   --> B_2  D_4  S_4  
     e(  3 -  3) =    -32.78215  eV     1   --> A_1  D_1  S_1  
     e(  4 -  4) =    -32.74937  eV     1   --> B_1  D_3  S_3  
     e(  5 -  5) =      0.69766  eV     1   --> B_2  D_4  S_4  
     e(  6 -  6) =      1.38928  eV     1   --> A_1  D_1  S_1  
     e(  7 -  7) =      7.02288  eV     1   --> A_1  D_1  S_1  
     e(  8 -  8) =      9.45664  eV     1   --> A_2  D_2  S_2  
     e(  9 -  9) =     12.31751  eV     1   --> B_1  D_3  S_3  
     e( 10 - 10) =     13.19141  eV     1   --> A_1  D_1  S_1  
     e( 11 - 11) =     14.57955  eV     1   --> B_2  D_4  S_4  
     e( 12 - 12) =     16.38130  eV     1   --> A_1  D_1  S_1  
     e( 13 - 13) =     21.76848  eV     1   --> B_1  D_3  S_3  
     e( 14 - 14) =     22.89230  eV     1   --> A_1  D_1  S_1  
     e( 15 - 15) =     23.61954  eV     1   --> B_1  D_3  S_3  
     e( 16 - 16) =     24.49613  eV     1   --> B_2  D_4  S_4  

 **************************************************************************

 **************************************************************************

                    xk=(   0.48750,   0.31033,   0.00000  )

     Band symmetry, C_2v (mm2)  point group:

     e(  1 -  1) =    -65.98908  eV     1   --> A_1  D_1  S_1  
     e(  2 -  2) =    -32.81207  eV     1   --> B_2  D_4  S_4  
     e(  3 -  3) =    -32.78223  eV     1   --> A_1  D_1  S_1  
     e(  4 -  4) =    -32.74936  eV     1   --> B_1  D_3  S_3  
     e(  5 -  5) =      0.70164  eV     1   --> B_2  D_4  S_4  
     e(  6 -  6) =      1.39338  eV     1   --> A_1  D_1  S_1  
     e(  7 -  7) =      6.99339  eV     1   --> A_1  D_1  S_1  
     e(  8 -  8) =      9.46167  eV     1   --> A_2  D_2  S_2  
     e(  9 -  9) =     12.31547  eV     1   --> B_1  D_3  S_3  
     e( 10 - 10) =     13.22354  eV     1   --> A_1  D_1  S_1  
     e( 11 - 11) =     14.58236  eV     1   --> B_2  D_4  S_4  
     e( 12 - 12) =     16.38736  eV     1   --> A_1  D_1  S_1  
     e( 13 - 13) =     21.67123  eV     1   --> B_1  D_3  S_3  
     e( 14 - 14) =     22.86356  eV     1   --> A_1  D_1  S_1  
     e( 15 - 15) =     23.73005  eV     1   --> B_1  D_3  S_3  
     e( 16 - 16) =     24.47298  eV     1   --> B_2  D_4  S_4  

 **************************************************************************

 **************************************************************************

                    xk=(   0.48333,   0.31754,   0.00000  )

     Band symmetry, C_2v (mm2)  point group:

     e(  1 -  1) =    -65.98907  eV     1   --> A_1  D_1  S_1  
     e(  2 -  2) =    -32.81201  eV     1   --> B_2  D_4  S_4  
     e(  3 -  3) =    -32.78235  eV     1   --> A_1  D_1  S_1  
     e(  4 -  4) =    -32.74936  eV     1   --> B_1  D_3  S_3  
     e(  5 -  5) =      0.70721  eV     1   --> B_2  D_4  S_4  
     e(  6 -  6) =      1.39912  eV     1   --> A_1  D_1  S_1  
     e(  7 -  7) =      6.95267  eV     1   --> A_1  D_1  S_1  
     e(  8 -  8) =      9.46870  eV     1   --> A_2  D_2  S_2  
     e(  9 -  9) =     12.31258  eV     1   --> B_1  D_3  S_3  
     e( 10 - 10) =     13.26785  eV     1   --> A_1  D_1  S_1  
     e( 11 - 11) =     14.58629  eV     1   --> B_2  D_4  S_4  
     e( 12 - 12) =     16.39591  eV     1   --> A_1  D_1  S_1  
     e( 13 - 13) =     21.55090  eV     1   --> B_1  D_3  S_3  
     e( 14 - 14) =     22.82408  eV     1   --> A_1  D_1  S_1  
     e( 15 - 15) =     23.86894  eV     1   --> B_1  D_3  S_3  
     e( 16 - 16) =     24.44137  eV     1   --> B_2  D_4  S_4  

 **************************************************************************

 **************************************************************************

                    xk=(   0.47917,   0.32476,   0.00000  )

     Band symmetry, C_2v (mm2)  point group:

     e(  1 -  1) =    -65.98907  eV     1   --> A_1  D_1  S_1  
     e(  2 -  2) =    -32.81193  eV     1   --> B_2  D_4  S_4  
     e(  3 -  3) =    -32.78250  eV     1   --> A_1  D_1  S_1  
     e(  4 -  4) =    -32.74935  eV     1   --> B_1  D_3  S_3  
     e(  5 -  5) =      0.71438  eV     1   --> B_2  D_4  S_4  
     e(  6 -  6) =      1.40648  eV     1   --> A_1  D_1  S_1  
     e(  7 -  7) =      6.90128  eV     1   --> A_1  D_1  S_1  
     e(  8 -  8) =      9.47774  eV     1   --> A_2  D_2  S_2  
     e(  9 -  9) =     12.30882  eV     1   --> B_1  D_3  S_3  
     e( 10 - 10) =     13.32370  eV     1   --> A_1  D_1  S_1  
     e( 11 - 11) =     14.59134  eV     1   --> B_2  D_4  S_4  
     e( 12 - 12) =     16.40701  eV     1   --> A_1  D_1  S_1  
     e( 13 - 13) =     21.41540  eV     1   --> B_1  D_3  S_3  
     e( 14 - 14) =     22.77457  eV     1   --> A_1  D_1  S_1  
     e( 15 - 15) =     24.02832  eV     1   --> B_1  D_3  S_3  
     e( 16 - 16) =     24.40201  eV     1   --> B_2  D_4  S_4  

 **************************************************************************

 **************************************************************************

                    xk=(   0.47500,   0.33198,   0.00000  )

     Band symmetry, C_2v (mm2)  point group:

     e(  1 -  1) =    -65.98906  eV     1   --> A_1  D_1  S_1  
     e(  2 -  2) =    -32.81183  eV     1   --> B_2  D_4  S_4  
     e(  3 -  3) =    -32.78269  eV     1   --> A_1  D_1  S_1  
     e(  4 -  4) =    -32.74934  eV     1   --> B_1  D_3  S_3  
     e(  5 -  5) =      0.72313  eV     1   --> B_2  D_4  S_4  
     e(  6 -  6) =      1.41546  eV     1   --> A_1  D_1  S_1  
     e(  7 -  7) =      6.83985  eV     1   --> A_1  D_1  S_1  
     e(  8 -  8) =      9.48879  eV     1   --> A_2  D_2  S_2  
     e(  9 -  9) =     12.30414  eV     1   --> B_1  D_3  S_3  
     e( 10 - 10) =     13.39030  eV     1   --> A_1  D_1  S_1  
     e( 11 - 11) =     14.59752  eV     1   --> B_2  D_4  S_4  
     e( 12 - 12) =     16.42071  eV     1   --> A_1  D_1  S_1  
     e( 13 - 13) =     21.27040  eV     1   --> B_1  D_3  S_3  
     e( 14 - 14) =     22.71584  eV     1   --> A_1  D_1  S_1  
     e( 15 - 15) =     24.20252  eV     1   --> B_1  D_3  S_3  
     e( 16 - 16) =     24.35568  eV     1   --> B_2  D_4  S_4  

 **************************************************************************

 **************************************************************************

                    xk=(   0.47083,   0.33919,   0.00000  )

     Band symmetry, C_2v (mm2)  point group:

     e(  1 -  1) =    -65.98905  eV     1   --> A_1  D_1  S_1  
     e(  2 -  2) =    -32.81172  eV     1   --> B_2  D_4  S_4  
     e(  3 -  3) =    -32.78291  eV     1   --> A_1  D_1  S_1  
     e(  4 -  4) =    -32.74932  eV     1   --> B_1  D_3  S_3  
     e(  5 -  5) =      0.73348  eV     1   --> B_2  D_4  S_4  
     e(  6 -  6) =      1.42606  eV     1   --> A_1  D_1  S_1  
     e(  7 -  7) =      6.76910  eV     1   --> A_1  D_1  S_1  
     e(  8 -  8) =      9.50185  eV     1   --> A_2  D_2  S_2  
     e(  9 -  9) =     12.29851  eV     1   --> B_1  D_3  S_3  
     e( 10 - 10) =     13.46678  eV     1   --> A_1  D_1  S_1  
     e( 11 - 11) =     14.60481  eV     1   --> B_2  D_4  S_4  
     e( 12 - 12) =     16.43713  eV     1   --> A_1  D_1  S_1  
     e( 13 - 13) =     21.11980  eV     1   --> B_1  D_3  S_3  
     e( 14 - 14) =     22.64881  eV     1   --> A_1  D_1  S_1  
     e( 15 - 15) =     24.30315  eV     1   --> B_2  D_4  S_4  
     e( 16 - 16) =     24.38765  eV     1   --> B_1  D_3  S_3  

 **************************************************************************

 **************************************************************************

                    xk=(   0.46667,   0.34641,   0.00000  )

     Band symmetry, C_2v (mm2)  point group:

     e(  1 -  1) =    -65.98904  eV     1   --> A_1  D_1  S_1  
     e(  2 -  2) =    -32.81159  eV     1   --> B_2  D_4  S_4  
     e(  3 -  3) =    -32.78316  eV     1   --> A_1  D_1  S_1  
     e(  4 -  4) =    -32.74931  eV     1   --> B_1  D_3  S_3  
     e(  5 -  5) =      0.74541  eV     1   --> B_2  D_4  S_4  
     e(  6 -  6) =      1.43826  eV     1   --> A_1  D_1  S_1  
     e(  7 -  7) =      6.68978  eV     1   --> A_1  D_1  S_1  
     e(  8 -  8) =      9.51691  eV     1   --> A_2  D_2  S_2  
     e(  9 -  9) =     12.29186  eV     1   --> B_1  D_3  S_3  
     e( 10 - 10) =     13.55216  eV     1   --> A_1  D_1  S_1  
     e( 11 - 11) =     14.61322  eV     1   --> B_2  D_4  S_4  
     e( 12 - 12) =     16.45638  eV     1   --> A_1  D_1  S_1  
     e( 13 - 13) =     20.96625  eV     1   --> B_1  D_3  S_3  
     e( 14 - 14) =     22.57443  eV     1   --> A_1  D_1  S_1  
     e( 15 - 15) =     24.24522  eV     1   --> B_2  D_4  S_4  
     e( 16 - 16) =     24.58106  eV     1   --> B_1  D_3  S_3  

 **************************************************************************

 **************************************************************************

                    xk=(   0.46250,   0.35363,   0.00000  )

     Band symmetry, C_2v (mm2)  point group:

     e(  1 -  1) =    -65.98904  eV     1   --> A_1  D_1  S_1  
     e(  2 -  2) =    -32.81145  eV     1   --> B_2  D_4  S_4  
     e(  3 -  3) =    -32.78344  eV     1   --> A_1  D_1  S_1  
     e(  4 -  4) =    -32.74929  eV     1   --> B_1  D_3  S_3  
     e(  5 -  5) =      0.75894  eV     1   --> B_2  D_4  S_4  
     e(  6 -  6) =      1.45205  eV     1   --> A_1  D_1  S_1  
     e(  7 -  7) =      6.60267  eV     1   --> A_1  D_1  S_1  
     e(  8 -  8) =      9.53398  eV     1   --> A_2  D_2  S_2  
     e(  9 -  9) =     12.28413  eV     1   --> B_1  D_3  S_3  
     e( 10 - 10) =     13.64543  eV     1   --> A_1  D_1  S_1  
     e( 11 - 11) =     14.62274  eV     1   --> B_2  D_4  S_4  
     e( 12 - 12) =     16.47861  eV     1   --> A_1  D_1  S_1  
     e( 13 - 13) =     20.81161  eV     1   --> B_1  D_3  S_3  
     e( 14 - 14) =     22.49367  eV     1   --> A_1  D_1  S_1  
     e( 15 - 15) =     24.18261  eV     1   --> B_2  D_4  S_4  
     e( 16 - 16) =     24.78089  eV     1   --> B_1  D_3  S_3  

 **************************************************************************

 **************************************************************************

                    xk=(   0.45833,   0.36084,   0.00000  )

     Band symmetry, C_2v (mm2)  point group:

     e(  1 -  1) =    -65.98902  eV     1   --> A_1  D_1  S_1  
     e(  2 -  2) =    -32.81129  eV     1   --> B_2  D_4  S_4  
     e(  3 -  3) =    -32.78375  eV     1   --> A_1  D_1  S_1  
     e(  4 -  4) =    -32.74928  eV     1   --> B_1  D_3  S_3  
     e(  5 -  5) =      0.77406  eV     1   --> B_2  D_4  S_4  
     e(  6 -  6) =      1.46741  eV     1   --> A_1  D_1  S_1  
     e(  7 -  7) =      6.50855  eV     1   --> A_1  D_1  S_1  
     e(  8 -  8) =      9.55305  eV     1   --> A_2  D_2  S_2  
     e(  9 -  9) =     12.27526  eV     1   --> B_1  D_3  S_3  
     e( 10 - 10) =     13.74550  eV     1   --> A_1  D_1  S_1  
     e( 11 - 11) =     14.63338  eV     1   --> B_2  D_4  S_4  
     e( 12 - 12) =     16.50399  eV     1   --> A_1  D_1  S_1  
     e( 13 - 13) =     20.65720  eV     1   --> B_1  D_3  S_3  
     e( 14 - 14) =     22.40748  eV     1   --> A_1  D_1  S_1  
     e( 15 - 15) =     24.11596  eV     1   --> B_2  D_4  S_4  
     e( 16 - 16) =     24.98582  eV     1   --> B_1  D_3  S_3  

 **************************************************************************

 **************************************************************************

                    xk=(   0.45417,   0.36806,   0.00000  )

     Band symmetry, C_2v (mm2)  point group:

     e(  1 -  1) =    -65.98901  eV     1   --> A_1  D_1  S_1  
     e(  2 -  2) =    -32.81111  eV     1   --> B_2  D_4  S_4  
     e(  3 -  3) =    -32.78409  eV     1   --> A_1  D_1  S_1  
     e(  4 -  4) =    -32.74926  eV     1   --> B_1  D_3  S_3  
     e(  5 -  5) =      0.79076  eV     1   --> B_2  D_4  S_4  
     e(  6 -  6) =      1.48433  eV     1   --> A_1  D_1  S_1  
     e(  7 -  7) =      6.40816  eV     1   --> A_1  D_1  S_1  
     e(  8 -  8) =      9.57412  eV     1   --> A_2  D_2  S_2  
     e(  9 -  9) =     12.26517  eV     1   --> B_1  D_3  S_3  
     e( 10 - 10) =     13.85127  eV     1   --> A_1  D_1  S_1  
     e( 11 - 11) =     14.64512  eV     1   --> B_2  D_4  S_4  
     e( 12 - 12) =     16.53274  eV     1   --> A_1  D_1  S_1  
     e( 13 - 13) =     20.50402  eV     1   --> B_1  D_3  S_3  
     e( 14 - 14) =     22.31681  eV     1   --> A_1  D_1  S_1  
     e( 15 - 15) =     24.04589  eV     1   --> B_2  D_4  S_4  
     e( 16 - 16) =     25.19489  eV     1   --> B_1  D_3  S_3  

 **************************************************************************

 **************************************************************************

                    xk=(   0.45000,   0.37528,   0.00000  )

     Band symmetry, C_2v (mm2)  point group:

     e(  1 -  1) =    -65.98900  eV     1   --> A_1  D_1  S_1  
     e(  2 -  2) =    -32.81092  eV     1   --> B_2  D_4  S_4  
     e(  3 -  3) =    -32.78446  eV     1   --> A_1  D_1  S_1  
     e(  4 -  4) =    -32.74924  eV     1   --> B_1  D_3  S_3  
     e(  5 -  5) =      0.80906  eV     1   --> B_2  D_4  S_4  
     e(  6 -  6) =      1.50279  eV     1   --> A_1  D_1  S_1  
     e(  7 -  7) =      6.30222  eV     1   --> A_1  D_1  S_1  
     e(  8 -  8) =      9.59719  eV     1   --> A_2  D_2  S_2  
     e(  9 -  9) =     12.25377  eV     1   --> B_1  D_3  S_3  
     e( 10 - 10) =     13.96163  eV     1   --> A_1  D_1  S_1  
     e( 11 - 11) =     14.65797  eV     1   --> B_2  D_4  S_4  
     e( 12 - 12) =     16.56509  eV     1   --> A_1  D_1  S_1  
     e( 13 - 13) =     20.35279  eV     1   --> B_1  D_3  S_3  
     e( 14 - 14) =     22.22257  eV     1   --> A_1  D_1  S_1  
     e( 15 - 15) =     23.97290  eV     1   --> B_2  D_4  S_4  
     e( 16 - 16) =     25.40733  eV     1   --> B_1  D_3  S_3  

 **************************************************************************

 **************************************************************************

                    xk=(   0.44583,   0.38249,   0.00000  )

     Band symmetry, C_2v (mm2)  point group:

     e(  1 -  1) =    -65.98899  eV     1   --> A_1  D_1  S_1  
     e(  2 -  2) =    -32.81070  eV     1   --> B_2  D_4  S_4  
     e(  3 -  3) =    -32.78485  eV     1   --> A_1  D_1  S_1  
     e(  4 -  4) =    -32.74921  eV     1   --> B_1  D_3  S_3  
     e(  5 -  5) =      0.82895  eV     1   --> B_2  D_4  S_4  
     e(  6 -  6) =      1.52275  eV     1   --> A_1  D_1  S_1  
     e(  7 -  7) =      6.19143  eV     1   --> A_1  D_1  S_1  
     e(  8 -  8) =      9.62227  eV     1   --> A_2  D_2  S_2  
     e(  9 -  9) =     12.24098  eV     1   --> B_1  D_3  S_3  
     e( 10 - 10) =     14.07540  eV     1   --> A_1  D_1  S_1  
     e( 11 - 11) =     14.67192  eV     1   --> B_2  D_4  S_4  
     e( 12 - 12) =     16.60132  eV     1   --> A_1  D_1  S_1  
     e( 13 - 13) =     20.20412  eV     1   --> B_1  D_3  S_3  
     e( 14 - 14) =     22.12563  eV     1   --> A_1  D_1  S_1  
     e( 15 - 15) =     23.89746  eV     1   --> B_2  D_4  S_4  
     e( 16 - 16) =     25.62256  eV     1   --> B_1  D_3  S_3  

 **************************************************************************

 **************************************************************************

                    xk=(   0.44167,   0.38971,   0.00000  )

     Band symmetry, C_2v (mm2)  point group:

     e(  1 -  1) =    -65.98897  eV     1   --> A_1  D_1  S_1  
     e(  2 -  2) =    -32.81048  eV     1   --> B_2  D_4  S_4  
     e(  3 -  3) =    -32.78527  eV     1   --> A_1  D_1  S_1  
     e(  4 -  4) =    -32.74919  eV     1   --> B_1  D_3  S_3  
     e(  5 -  5) =      0.85042  eV     1   --> B_2  D_4  S_4  
     e(  6 -  6) =      1.54420  eV     1   --> A_1  D_1  S_1  
     e(  7 -  7) =      6.07640  eV     1   --> A_1  D_1  S_1  
     e(  8 -  8) =      9.64934  eV     1   --> A_2  D_2  S_2  
     e(  9 -  9) =     12.22669  eV     1   --> B_1  D_3  S_3  
     e( 10 - 10) =     14.19144  eV     1   --> A_1  D_1  S_1  
     e( 11 - 11) =     14.68697  eV     1   --> B_2  D_4  S_4  
     e( 12 - 12) =     16.64174  eV     1   --> A_1  D_1  S_1  
     e( 13 - 13) =     20.05848  eV     1   --> B_1  D_3  S_3  
     e( 14 - 14) =     22.02682  eV     1   --> A_1  D_1  S_1  
     e( 15 - 15) =     23.81996  eV     1   --> B_2  D_4  S_4  
     e( 16 - 16) =     25.66337  eV     1   --> A_1  D_1  S_1  

 **************************************************************************

 **************************************************************************

                    xk=(   0.43750,   0.39693,   0.00000  )

     Band symmetry, C_2v (mm2)  point group:

     e(  1 -  1) =    -65.98896  eV     1   --> A_1  D_1  S_1  
     e(  2 -  2) =    -32.81024  eV     1   --> B_2  D_4  S_4  
     e(  3 -  3) =    -32.78572  eV     1   --> A_1  D_1  S_1  
     e(  4 -  4) =    -32.74917  eV     1   --> B_1  D_3  S_3  
     e(  5 -  5) =      0.87349  eV     1   --> B_2  D_4  S_4  
     e(  6 -  6) =      1.56709  eV     1   --> A_1  D_1  S_1  
     e(  7 -  7) =      5.95775  eV     1   --> A_1  D_1  S_1  
     e(  8 -  8) =      9.67840  eV     1   --> A_2  D_2  S_2  
     e(  9 -  9) =     12.21080  eV     1   --> B_1  D_3  S_3  
     e( 10 - 10) =     14.30854  eV     1   --> A_1  D_1  S_1  
     e( 11 - 11) =     14.70311  eV     1   --> B_2  D_4  S_4  
     e( 12 - 12) =     16.68668  eV     1   --> A_1  D_1  S_1  
     e( 13 - 13) =     19.91627  eV     1   --> B_1  D_3  S_3  
     e( 14 - 14) =     21.92695  eV     1   --> A_1  D_1  S_1  
     e( 15 - 15) =     23.74076  eV     1   --> B_2  D_4  S_4  
     e( 16 - 16) =     25.51662  eV     1   --> A_1  D_1  S_1  

 **************************************************************************

 **************************************************************************

                    xk=(   0.43333,   0.40414,   0.00000  )

     Band symmetry, C_2v (mm2)  point group:

     e(  1 -  1) =    -65.98895  eV     1   --> A_1  D_1  S_1  
     e(  2 -  2) =    -32.80998  eV     1   --> B_2  D_4  S_4  
     e(  3 -  3) =    -32.78619  eV     1   --> A_1  D_1  S_1  
     e(  4 -  4) =    -32.74914  eV     1   --> B_1  D_3  S_3  
     e(  5 -  5) =      0.89814  eV     1   --> B_2  D_4  S_4  
     e(  6 -  6) =      1.59139  eV     1   --> A_1  D_1  S_1  
     e(  7 -  7) =      5.83601  eV     1   --> A_1  D_1  S_1  
     e(  8 -  8) =      9.70946  eV     1   --> A_2  D_2  S_2  
     e(  9 -  9) =     12.19322  eV     1   --> B_1  D_3  S_3  
     e( 10 - 10) =     14.42551  eV     1   --> A_1  D_1  S_1  
     e( 11 - 11) =     14.72034  eV     1   --> B_2  D_4  S_4  
     e( 12 - 12) =     16.73650  eV     1   --> A_1  D_1  S_1  
     e( 13 - 13) =     19.77785  eV     1   --> B_1  D_3  S_3  
     e( 14 - 14) =     21.82681  eV     1   --> A_1  D_1  S_1  
     e( 15 - 15) =     23.66016  eV     1   --> B_2  D_4  S_4  
     e( 16 - 16) =     25.36719  eV     1   --> A_1  D_1  S_1  

 **************************************************************************

 **************************************************************************

                    xk=(   0.42917,   0.41136,   0.00000  )

     Band symmetry, C_2v (mm2)  point group:

     e(  1 -  1) =    -65.98893  eV     1   --> A_1  D_1  S_1  
     e(  2 -  2) =    -32.80971  eV     1   --> B_2  D_4  S_4  
[...]
     e( 13 - 13) =     21.11907  eV     1   --> A_1  D_1  S_1  
     e( 14 - 14) =     21.61283  eV     1   --> A_2  D_2  S_2  
     e( 15 - 15) =     22.64366  eV     1   --> B_2  D_4  S_4  
     e( 16 - 16) =     25.24583  eV     1   --> B_2  D_4  S_4  

 **************************************************************************

 **************************************************************************

                    xk=(   0.33750,   0.19486,   0.43740  )

     Band symmetry, C_2v (mm2)  point group:

     e(  1 -  1) =    -65.98965  eV     1   --> A_1  D_1  S_1  
     e(  2 -  2) =    -32.80187  eV     1   --> A_1  D_1  S_1  
     e(  3 -  3) =    -32.77913  eV     1   --> B_1  D_3  S_3  
     e(  4 -  4) =    -32.75769  eV     1   --> B_2  D_4  S_4  
     e(  5 -  5) =     -0.14494  eV     1   --> B_2  D_4  S_4  
     e(  6 -  6) =      3.97838  eV     1   --> A_1  D_1  S_1  
     e(  7 -  7) =      4.80391  eV     1   --> B_2  D_4  S_4  
     e(  8 -  8) =      7.77677  eV     1   --> A_2  D_2  S_2  
     e(  9 -  9) =     10.44932  eV     1   --> A_1  D_1  S_1  
     e( 10 - 10) =     15.21992  eV     1   --> B_2  D_4  S_4  
     e( 11 - 11) =     18.62641  eV     1   --> B_1  D_3  S_3  
     e( 12 - 12) =     18.63889  eV     1   --> A_1  D_1  S_1  
     e( 13 - 13) =     21.22552  eV     1   --> A_1  D_1  S_1  
     e( 14 - 14) =     21.93463  eV     1   --> A_2  D_2  S_2  
     e( 15 - 15) =     22.83678  eV     1   --> B_2  D_4  S_4  
     e( 16 - 16) =     25.27395  eV     1   --> B_2  D_4  S_4  

 **************************************************************************

 **************************************************************************

                    xk=(   0.35000,   0.20207,   0.43740  )

     Band symmetry, C_2v (mm2)  point group:

     e(  1 -  1) =    -65.98954  eV     1   --> A_1  D_1  S_1  
     e(  2 -  2) =    -32.80315  eV     1   --> A_1  D_1  S_1  
     e(  3 -  3) =    -32.77944  eV     1   --> B_1  D_3  S_3  
     e(  4 -  4) =    -32.75747  eV     1   --> B_2  D_4  S_4  
     e(  5 -  5) =     -0.01228  eV     1   --> B_2  D_4  S_4  
     e(  6 -  6) =      4.13259  eV     1   --> A_1  D_1  S_1  
     e(  7 -  7) =      4.57031  eV     1   --> B_2  D_4  S_4  
     e(  8 -  8) =      7.71322  eV     1   --> A_2  D_2  S_2  
     e(  9 -  9) =     10.17806  eV     1   --> A_1  D_1  S_1  
     e( 10 - 10) =     15.18661  eV     1   --> B_2  D_4  S_4  
     e( 11 - 11) =     18.55580  eV     1   --> A_1  D_1  S_1  
     e( 12 - 12) =     18.56259  eV     1   --> B_1  D_3  S_3  
     e( 13 - 13) =     21.33430  eV     1   --> A_1  D_1  S_1  
     e( 14 - 14) =     22.25528  eV     1   --> A_2  D_2  S_2  
     e( 15 - 15) =     23.02783  eV     1   --> B_2  D_4  S_4  
     e( 16 - 16) =     25.29668  eV     1   --> B_2  D_4  S_4  

 **************************************************************************

 **************************************************************************

                    xk=(   0.36250,   0.20929,   0.43740  )

     Band symmetry, C_2v (mm2)  point group:

     e(  1 -  1) =    -65.98944  eV     1   --> A_1  D_1  S_1  
     e(  2 -  2) =    -32.80437  eV     1   --> A_1  D_1  S_1  
     e(  3 -  3) =    -32.77973  eV     1   --> B_1  D_3  S_3  
     e(  4 -  4) =    -32.75727  eV     1   --> B_2  D_4  S_4  
     e(  5 -  5) =      0.12480  eV     1   --> B_2  D_4  S_4  
     e(  6 -  6) =      4.28985  eV     1   --> A_1  D_1  S_1  
     e(  7 -  7) =      4.33968  eV     1   --> B_2  D_4  S_4  
     e(  8 -  8) =      7.65439  eV     1   --> A_2  D_2  S_2  
     e(  9 -  9) =      9.91271  eV     1   --> A_1  D_1  S_1  
     e( 10 - 10) =     15.15555  eV     1   --> B_2  D_4  S_4  
     e( 11 - 11) =     18.47844  eV     1   --> A_1  D_1  S_1  
     e( 12 - 12) =     18.50381  eV     1   --> B_1  D_3  S_3  
     e( 13 - 13) =     21.44436  eV     1   --> A_1  D_1  S_1  
     e( 14 - 14) =     22.57321  eV     1   --> A_2  D_2  S_2  
     e( 15 - 15) =     23.21610  eV     1   --> B_2  D_4  S_4  
     e( 16 - 16) =     25.31336  eV     1   --> B_2  D_4  S_4  

 **************************************************************************

 **************************************************************************

                    xk=(   0.37500,   0.21651,   0.43740  )

     Band symmetry, C_2v (mm2)  point group:

     e(  1 -  1) =    -65.98934  eV     1   --> A_1  D_1  S_1  
     e(  2 -  2) =    -32.80550  eV     1   --> A_1  D_1  S_1  
     e(  3 -  3) =    -32.78001  eV     1   --> B_1  D_3  S_3  
     e(  4 -  4) =    -32.75708  eV     1   --> B_2  D_4  S_4  
     e(  5 -  5) =      0.26619  eV     1   --> B_2  D_4  S_4  
     e(  6 -  6) =      4.11232  eV     1   --> B_2  D_4  S_4  
     e(  7 -  7) =      4.44946  eV     1   --> A_1  D_1  S_1  
     e(  8 -  8) =      7.60038  eV     1   --> A_2  D_2  S_2  
     e(  9 -  9) =      9.65407  eV     1   --> A_1  D_1  S_1  
     e( 10 - 10) =     15.12687  eV     1   --> B_2  D_4  S_4  
     e( 11 - 11) =     18.40711  eV     1   --> A_1  D_1  S_1  
     e( 12 - 12) =     18.45009  eV     1   --> B_1  D_3  S_3  
     e( 13 - 13) =     21.55458  eV     1   --> A_1  D_1  S_1  
     e( 14 - 14) =     22.88653  eV     1   --> A_2  D_2  S_2  
     e( 15 - 15) =     23.40087  eV     1   --> B_2  D_4  S_4  
     e( 16 - 16) =     25.32326  eV     1   --> B_2  D_4  S_4  

 **************************************************************************

 **************************************************************************

                    xk=(   0.38750,   0.22372,   0.43740  )

     Band symmetry, C_2v (mm2)  point group:

     e(  1 -  1) =    -65.98925  eV     1   --> A_1  D_1  S_1  
     e(  2 -  2) =    -32.80654  eV     1   --> A_1  D_1  S_1  
     e(  3 -  3) =    -32.78026  eV     1   --> B_1  D_3  S_3  
     e(  4 -  4) =    -32.75691  eV     1   --> B_2  D_4  S_4  
     e(  5 -  5) =      0.41174  eV     1   --> B_2  D_4  S_4  
     e(  6 -  6) =      3.88853  eV     1   --> B_2  D_4  S_4  
     e(  7 -  7) =      4.61051  eV     1   --> A_1  D_1  S_1  
     e(  8 -  8) =      7.55128  eV     1   --> A_2  D_2  S_2  
     e(  9 -  9) =      9.40315  eV     1   --> A_1  D_1  S_1  
     e( 10 - 10) =     15.10067  eV     1   --> B_2  D_4  S_4  
     e( 11 - 11) =     18.34207  eV     1   --> A_1  D_1  S_1  
     e( 12 - 12) =     18.40145  eV     1   --> B_1  D_3  S_3  
     e( 13 - 13) =     21.66372  eV     1   --> A_1  D_1  S_1  
     e( 14 - 14) =     23.19295  eV     1   --> A_2  D_2  S_2  
     e( 15 - 15) =     23.58139  eV     1   --> B_2  D_4  S_4  
     e( 16 - 16) =     25.32561  eV     1   --> B_2  D_4  S_4  

 **************************************************************************

 **************************************************************************

                    xk=(   0.40000,   0.23094,   0.43740  )

     Band symmetry, C_2v (mm2)  point group:

     e(  1 -  1) =    -65.98916  eV     1   --> A_1  D_1  S_1  
     e(  2 -  2) =    -32.80750  eV     1   --> A_1  D_1  S_1  
     e(  3 -  3) =    -32.78050  eV     1   --> B_1  D_3  S_3  
     e(  4 -  4) =    -32.75675  eV     1   --> B_2  D_4  S_4  
     e(  5 -  5) =      0.56123  eV     1   --> B_2  D_4  S_4  
     e(  6 -  6) =      3.66868  eV     1   --> B_2  D_4  S_4  
     e(  7 -  7) =      4.77178  eV     1   --> A_1  D_1  S_1  
     e(  8 -  8) =      7.50716  eV     1   --> A_2  D_2  S_2  
     e(  9 -  9) =      9.16126  eV     1   --> A_1  D_1  S_1  
     e( 10 - 10) =     15.07701  eV     1   --> B_2  D_4  S_4  
     e( 11 - 11) =     18.28350  eV     1   --> A_1  D_1  S_1  
     e( 12 - 12) =     18.35790  eV     1   --> B_1  D_3  S_3  
     e( 13 - 13) =     21.77037  eV     1   --> A_1  D_1  S_1  
     e( 14 - 14) =     23.48964  eV     1   --> A_2  D_2  S_2  
     e( 15 - 15) =     23.75685  eV     1   --> B_2  D_4  S_4  
     e( 16 - 16) =     25.31961  eV     1   --> B_2  D_4  S_4  

 **************************************************************************

 **************************************************************************

                    xk=(   0.41250,   0.23816,   0.43740  )

     Band symmetry, C_2v (mm2)  point group:

     e(  1 -  1) =    -65.98909  eV     1   --> A_1  D_1  S_1  
     e(  2 -  2) =    -32.80835  eV     1   --> A_1  D_1  S_1  
     e(  3 -  3) =    -32.78070  eV     1   --> B_1  D_3  S_3  
     e(  4 -  4) =    -32.75661  eV     1   --> B_2  D_4  S_4  
     e(  5 -  5) =      0.71434  eV     1   --> B_2  D_4  S_4  
     e(  6 -  6) =      3.45322  eV     1   --> B_2  D_4  S_4  
     e(  7 -  7) =      4.93163  eV     1   --> A_1  D_1  S_1  
     e(  8 -  8) =      7.46809  eV     1   --> A_2  D_2  S_2  
     e(  9 -  9) =      8.93011  eV     1   --> A_1  D_1  S_1  
     e( 10 - 10) =     15.05599  eV     1   --> B_2  D_4  S_4  
     e( 11 - 11) =     18.23154  eV     1   --> A_1  D_1  S_1  
     e( 12 - 12) =     18.31945  eV     1   --> B_1  D_3  S_3  
     e( 13 - 13) =     21.87290  eV     1   --> A_1  D_1  S_1  
     e( 14 - 14) =     23.77312  eV     1   --> A_2  D_2  S_2  
     e( 15 - 15) =     23.92640  eV     1   --> B_2  D_4  S_4  
     e( 16 - 16) =     25.30451  eV     1   --> B_2  D_4  S_4  

 **************************************************************************

 **************************************************************************

                    xk=(   0.42500,   0.24537,   0.43740  )

     Band symmetry, C_2v (mm2)  point group:

     e(  1 -  1) =    -65.98902  eV     1   --> A_1  D_1  S_1  
     e(  2 -  2) =    -32.80911  eV     1   --> A_1  D_1  S_1  
     e(  3 -  3) =    -32.78089  eV     1   --> B_1  D_3  S_3  
     e(  4 -  4) =    -32.75648  eV     1   --> B_2  D_4  S_4  
     e(  5 -  5) =      0.87058  eV     1   --> B_2  D_4  S_4  
     e(  6 -  6) =      3.24273  eV     1   --> B_2  D_4  S_4  
     e(  7 -  7) =      5.08776  eV     1   --> A_1  D_1  S_1  
     e(  8 -  8) =      7.43412  eV     1   --> A_2  D_2  S_2  
     e(  9 -  9) =      8.71207  eV     1   --> A_1  D_1  S_1  
     e( 10 - 10) =     15.03766  eV     1   --> B_2  D_4  S_4  
     e( 11 - 11) =     18.18631  eV     1   --> A_1  D_1  S_1  
     e( 12 - 12) =     18.28611  eV     1   --> B_1  D_3  S_3  
     e( 13 - 13) =     21.96939  eV     1   --> A_1  D_1  S_1  
     e( 14 - 14) =     24.03907  eV     1   --> A_2  D_2  S_2  
     e( 15 - 15) =     24.08918  eV     1   --> B_2  D_4  S_4  
     e( 16 - 16) =     25.27957  eV     1   --> B_2  D_4  S_4  

 **************************************************************************

 **************************************************************************

                    xk=(   0.43750,   0.25259,   0.43740  )

     Band symmetry, C_2v (mm2)  point group:

     e(  1 -  1) =    -65.98897  eV     1   --> A_1  D_1  S_1  
     e(  2 -  2) =    -32.80975  eV     1   --> A_1  D_1  S_1  
     e(  3 -  3) =    -32.78104  eV     1   --> B_1  D_3  S_3  
     e(  4 -  4) =    -32.75637  eV     1   --> B_2  D_4  S_4  
     e(  5 -  5) =      1.02911  eV     1   --> B_2  D_4  S_4  
     e(  6 -  6) =      3.03816  eV     1   --> B_2  D_4  S_4  
     e(  7 -  7) =      5.23698  eV     1   --> A_1  D_1  S_1  
     e(  8 -  8) =      7.40531  eV     1   --> A_2  D_2  S_2  
     e(  9 -  9) =      8.51037  eV     1   --> A_1  D_1  S_1  
     e( 10 - 10) =     15.02207  eV     1   --> B_2  D_4  S_4  
     e( 11 - 11) =     18.14790  eV     1   --> A_1  D_1  S_1  
     e( 12 - 12) =     18.25789  eV     1   --> B_1  D_3  S_3  
     e( 13 - 13) =     22.05765  eV     1   --> A_1  D_1  S_1  
     e( 14 - 14) =     24.24427  eV     1   --> B_2  D_4  S_4  
     e( 15 - 15) =     24.28225  eV     1   --> A_2  D_2  S_2  
     e( 16 - 16) =     25.22738  eV     1   --> A_1  D_1  S_1  

 **************************************************************************

 **************************************************************************

                    xk=(   0.45000,   0.25981,   0.43740  )

     Band symmetry, C_2v (mm2)  point group:

     e(  1 -  1) =    -65.98892  eV     1   --> A_1  D_1  S_1  
     e(  2 -  2) =    -32.81029  eV     1   --> A_1  D_1  S_1  
     e(  3 -  3) =    -32.78117  eV     1   --> B_1  D_3  S_3  
     e(  4 -  4) =    -32.75629  eV     1   --> B_2  D_4  S_4  
     e(  5 -  5) =      1.18840  eV     1   --> B_2  D_4  S_4  
     e(  6 -  6) =      2.84110  eV     1   --> B_2  D_4  S_4  
     e(  7 -  7) =      5.37487  eV     1   --> A_1  D_1  S_1  
     e(  8 -  8) =      7.38168  eV     1   --> A_2  D_2  S_2  
     e(  9 -  9) =      8.32950  eV     1   --> A_1  D_1  S_1  
     e( 10 - 10) =     15.00926  eV     1   --> B_2  D_4  S_4  
     e( 11 - 11) =     18.11639  eV     1   --> A_1  D_1  S_1  
     e( 12 - 12) =     18.23479  eV     1   --> B_1  D_3  S_3  
     e( 13 - 13) =     22.13521  eV     1   --> A_1  D_1  S_1  
     e( 14 - 14) =     24.39068  eV     1   --> B_2  D_4  S_4  
     e( 15 - 15) =     24.49640  eV     1   --> A_2  D_2  S_2  
     e( 16 - 16) =     25.14937  eV     1   --> A_1  D_1  S_1  

 **************************************************************************

 **************************************************************************

                    xk=(   0.46250,   0.26702,   0.43740  )

     Band symmetry, C_2v (mm2)  point group:

     e(  1 -  1) =    -65.98888  eV     1   --> A_1  D_1  S_1  
     e(  2 -  2) =    -32.81070  eV     1   --> A_1  D_1  S_1  
     e(  3 -  3) =    -32.78128  eV     1   --> B_1  D_3  S_3  
     e(  4 -  4) =    -32.75621  eV     1   --> B_2  D_4  S_4  
     e(  5 -  5) =      1.34534  eV     1   --> B_2  D_4  S_4  
     e(  6 -  6) =      2.65473  eV     1   --> B_2  D_4  S_4  
     e(  7 -  7) =      5.49541  eV     1   --> A_1  D_1  S_1  
     e(  8 -  8) =      7.36327  eV     1   --> A_2  D_2  S_2  
     e(  9 -  9) =      8.17548  eV     1   --> A_1  D_1  S_1  
     e( 10 - 10) =     14.99926  eV     1   --> B_2  D_4  S_4  
     e( 11 - 11) =     18.09183  eV     1   --> A_1  D_1  S_1  
     e( 12 - 12) =     18.21682  eV     1   --> B_1  D_3  S_3  
     e( 13 - 13) =     22.19942  eV     1   --> A_1  D_1  S_1  
     e( 14 - 14) =     24.52730  eV     1   --> B_2  D_4  S_4  
     e( 15 - 15) =     24.67441  eV     1   --> A_2  D_2  S_2  
     e( 16 - 16) =     25.08426  eV     1   --> A_1  D_1  S_1  

 **************************************************************************

 **************************************************************************

                    xk=(   0.47500,   0.27424,   0.43740  )

     Band symmetry, C_2v (mm2)  point group:

     e(  1 -  1) =    -65.98886  eV     1   --> A_1  D_1  S_1  
     e(  2 -  2) =    -32.81101  eV     1   --> A_1  D_1  S_1  
     e(  3 -  3) =    -32.78135  eV     1   --> B_1  D_3  S_3  
     e(  4 -  4) =    -32.75616  eV     1   --> B_2  D_4  S_4  
     e(  5 -  5) =      1.49274  eV     1   --> B_2  D_4  S_4  
     e(  6 -  6) =      2.48627  eV     1   --> B_2  D_4  S_4  
     e(  7 -  7) =      5.59100  eV     1   --> A_1  D_1  S_1  
     e(  8 -  8) =      7.35011  eV     1   --> A_2  D_2  S_2  
     e(  9 -  9) =      8.05597  eV     1   --> A_1  D_1  S_1  
     e( 10 - 10) =     14.99211  eV     1   --> B_2  D_4  S_4  
     e( 11 - 11) =     18.07426  eV     1   --> A_1  D_1  S_1  
     e( 12 - 12) =     18.20398  eV     1   --> B_1  D_3  S_3  
     e( 13 - 13) =     22.24767  eV     1   --> A_1  D_1  S_1  
     e( 14 - 14) =     24.65249  eV     1   --> B_2  D_4  S_4  
     e( 15 - 15) =     24.80882  eV     1   --> A_2  D_2  S_2  
     e( 16 - 16) =     25.03507  eV     1   --> A_1  D_1  S_1  

 **************************************************************************

 **************************************************************************

                    xk=(   0.48750,   0.28146,   0.43740  )

     Band symmetry, C_2v (mm2)  point group:

     e(  1 -  1) =    -65.98884  eV     1   --> A_1  D_1  S_1  
     e(  2 -  2) =    -32.81119  eV     1   --> A_1  D_1  S_1  
     e(  3 -  3) =    -32.78139  eV     1   --> B_1  D_3  S_3  
     e(  4 -  4) =    -32.75613  eV     1   --> B_2  D_4  S_4  
     e(  5 -  5) =      1.61230  eV     1   --> B_2  D_4  S_4  
     e(  6 -  6) =      2.35406  eV     1   --> B_2  D_4  S_4  
     e(  7 -  7) =      5.65317  eV     1   --> A_1  D_1  S_1  
     e(  8 -  8) =      7.34220  eV     1   --> A_2  D_2  S_2  
     e(  9 -  9) =      7.97943  eV     1   --> A_1  D_1  S_1  
     e( 10 - 10) =     14.98781  eV     1   --> B_2  D_4  S_4  
     e( 11 - 11) =     18.06371  eV     1   --> A_1  D_1  S_1  
     e( 12 - 12) =     18.19628  eV     1   --> B_1  D_3  S_3  
     e( 13 - 13) =     22.27768  eV     1   --> A_1  D_1  S_1  
     e( 14 - 14) =     24.76183  eV     1   --> B_2  D_4  S_4  
     e( 15 - 15) =     24.89280  eV     1   --> A_2  D_2  S_2  
     e( 16 - 16) =     24.99824  eV     1   --> B_2  D_4  S_4  

 **************************************************************************

 **************************************************************************

                    xk=(   0.50000,   0.28868,   0.43740  )

     point group D_2h (mmm) 
     there are  8 classes
     the character table:

       E     C2    C2'   C2''  i     s_v   s_v'  s_v''
A_g    1.00  1.00  1.00  1.00  1.00  1.00  1.00  1.00
B_1g   1.00  1.00 -1.00 -1.00  1.00  1.00 -1.00 -1.00
B_2g   1.00 -1.00  1.00 -1.00  1.00 -1.00  1.00 -1.00
B_3g   1.00 -1.00 -1.00  1.00  1.00 -1.00 -1.00  1.00
A_u    1.00  1.00  1.00  1.00 -1.00 -1.00 -1.00 -1.00
B_1u   1.00  1.00 -1.00 -1.00 -1.00 -1.00  1.00  1.00
B_2u   1.00 -1.00  1.00 -1.00 -1.00  1.00 -1.00  1.00
B_3u   1.00 -1.00 -1.00  1.00 -1.00  1.00  1.00 -1.00

     the symmetry operations in each class and the name of the first element:

     E        1
                                                                 
     C2       2
                                                                 
     C2'      4
                                                                 
     C2''     3
                                                                 
     i        5
                                                                 
     s_v      6
                                                                 
     s_v'     8
                                                                 
     s_v''    7
                                                                 

     Band symmetry, D_2h (mmm)  point group:

     e(  1 -  1) =    -65.98884  eV     1   --> A_g            
     e(  2 -  2) =    -32.81125  eV     1   --> B_3u           
     e(  3 -  3) =    -32.78141  eV     1   --> B_2u           
     e(  4 -  4) =    -32.75612  eV     1   --> B_1u           
     e(  5 -  5) =      1.66306  eV     1   --> B_2g           
     e(  6 -  6) =      2.29908  eV     1   --> B_1u           
     e(  7 -  7) =      5.67485  eV     1   --> B_3u           
     e(  8 -  8) =      7.33956  eV     1   --> B_3g           
     e(  9 -  9) =      7.95296  eV     1   --> A_g            
     e( 10 - 10) =     14.98637  eV     1   --> B_1u           
     e( 11 - 11) =     18.06019  eV     1   --> A_g            
     e( 12 - 12) =     18.19371  eV     1   --> B_2u           
     e( 13 - 13) =     22.28787  eV     1   --> B_3u           
     e( 14 - 14) =     24.82373  eV     1   --> B_1u           
     e( 15 - 15) =     24.92139  eV     1   --> A_u            
     e( 16 - 16) =     24.94799  eV     1   --> B_2g           

 **************************************************************************

     BANDS        :     16.40s CPU     16.93s WALL


   This run was terminated on:  21:11:33  10Jan2026            

=------------------------------------------------------------------------------=
   JOB DONE.
=------------------------------------------------------------------------------=
