
     Program PWSCF v.7.5 starts on 10Jan2026 at 21: 1:33 

     This program is part of the open-source Quantum ESPRESSO suite
     for quantum simulation of materials; please cite
         "P. Giannozzi et al., J. Phys.:Condens. Matter 21 395502 (2009);
         "P. Giannozzi et al., J. Phys.:Condens. Matter 29 465901 (2017);
         "P. Giannozzi et al., J. Chem. Phys. 152 154105 (2020);
          URL http://www.quantum-espresso.org", 
     in publications or presentations arising from this work. More details at
     http://www.quantum-espresso.org/quote

     Serial version
     1271 MiB available memory on the printing compute node when the environment starts

     Waiting for input...
     Reading input from standard input

     Current dimensions of program PWSCF are:
     Max number of different atomic species (ntypx) = 10
     Max number of k-points (npk) =  40000
     Max angular momentum in pseudopotentials (lmaxx) =  4


     G-vector sticks info
     --------------------
     sticks:   dense  smooth     PW     G-vecs:    dense   smooth      PW
     Sum         847     847    253                22583    22583    3657

     Using Slab Decomposition



     bravais-lattice index     =            4
     lattice parameter (alat)  =       5.8171  a.u.
     unit-cell volume          =     194.8744 (a.u.)^3
     number of atoms/cell      =            3
     number of atomic types    =            2
     number of electrons       =        16.00
     number of Kohn-Sham states=           12
     kinetic-energy cutoff     =      90.0000  Ry
     charge density cutoff     =     360.0000  Ry
     scf convergence threshold =      1.0E-06
     mixing beta               =       0.7000
     number of iterations used =            8  plain     mixing
     Exchange-correlation= PBE
                           (   1   4   3   4   0   0   0)

     celldm(1)=   5.817144  celldm(2)=   0.000000  celldm(3)=   1.143128
     celldm(4)=   0.000000  celldm(5)=   0.000000  celldm(6)=   0.000000

     crystal axes: (cart. coord. in units of alat)
               a(1) = (   1.000000   0.000000   0.000000 )  
               a(2) = (  -0.500000   0.866025   0.000000 )  
               a(3) = (   0.000000   0.000000   1.143128 )  

     reciprocal axes: (cart. coord. in units 2 pi/alat)
               b(1) = (  1.000000  0.577350 -0.000000 )  
               b(2) = (  0.000000  1.154701  0.000000 )  
               b(3) = (  0.000000 -0.000000  0.874793 )  


     PseudoPot. # 1 for Mg read from file:
     ./PSEUDO/Mg_ONCV_PBE_sr.upf
     MD5 check sum: f927bdb32a17e5444945ae8f6d999e45
     Pseudo is Norm-conserving, Zval = 10.0
     Generated using ONCVPSP code by D. R. Hamann
     Using radial grid of 1510 points,  4 beta functions with: 
                l(1) =   0
                l(2) =   0
                l(3) =   1
                l(4) =   1

     PseudoPot. # 2 for B  read from file:
     ./PSEUDO/B_ONCV_PBE_sr.upf
     MD5 check sum: 12e13f68e8dc593c0a1d43390bab284b
     Pseudo is Norm-conserving + core correction, Zval =  3.0
     Generated using ONCVPSP code by D. R. Hamann
     Using radial grid of 1534 points,  4 beta functions with: 
                l(1) =   0
                l(2) =   0
                l(3) =   1
                l(4) =   1

     atomic species   valence    mass     pseudopotential
     Mg               10.00    24.30500     Mg( 1.00)
     B                 3.00    10.81100     B ( 1.00)

     24 Sym. Ops., with inversion, found



   Cartesian axes

     site n.     atom                  positions (alat units)
         1        Mg     tau(   1) = (   0.0000000   0.0000000   0.0000000  )
         2        B      tau(   2) = (   0.0000000   0.5773497   0.5715638  )
         3        B      tau(   3) = (   0.4999995   0.2886748   0.5715638  )

     number of k points=    28  Gaussian smearing, width (Ry)=  0.0400
                       cart. coord. in units 2pi/alat
        k(    1) = (   0.0000000   0.0000000   0.0000000), wk =   0.0092593
        k(    2) = (   0.0000000   0.0000000   0.1457988), wk =   0.0185185
        k(    3) = (   0.0000000   0.0000000   0.2915977), wk =   0.0185185
        k(    4) = (   0.0000000   0.0000000  -0.4373965), wk =   0.0092593
        k(    5) = (   0.0000000   0.1924501   0.0000000), wk =   0.0555556
        k(    6) = (   0.0000000   0.1924501   0.1457988), wk =   0.1111111
        k(    7) = (   0.0000000   0.1924501   0.2915977), wk =   0.1111111
        k(    8) = (   0.0000000   0.1924501  -0.4373965), wk =   0.0555556
        k(    9) = (   0.0000000   0.3849002   0.0000000), wk =   0.0555556
        k(   10) = (   0.0000000   0.3849002   0.1457988), wk =   0.1111111
        k(   11) = (   0.0000000   0.3849002   0.2915977), wk =   0.1111111
        k(   12) = (   0.0000000   0.3849002  -0.4373965), wk =   0.0555556
        k(   13) = (   0.0000000  -0.5773503   0.0000000), wk =   0.0277778
        k(   14) = (   0.0000000  -0.5773503   0.1457988), wk =   0.0555556
        k(   15) = (   0.0000000  -0.5773503   0.2915977), wk =   0.0555556
        k(   16) = (   0.0000000  -0.5773503  -0.4373965), wk =   0.0277778
        k(   17) = (   0.1666667   0.2886751   0.0000000), wk =   0.0555556
        k(   18) = (   0.1666667   0.2886751   0.1457988), wk =   0.1111111
        k(   19) = (   0.1666667   0.2886751   0.2915977), wk =   0.1111111
        k(   20) = (   0.1666667   0.2886751  -0.4373965), wk =   0.0555556
        k(   21) = (   0.1666667   0.4811252   0.0000000), wk =   0.1111111
        k(   22) = (   0.1666667   0.4811252   0.1457988), wk =   0.2222222
        k(   23) = (   0.1666667   0.4811252   0.2915977), wk =   0.2222222
        k(   24) = (   0.1666667   0.4811252  -0.4373965), wk =   0.1111111
        k(   25) = (   0.3333333   0.5773503   0.0000000), wk =   0.0185185
        k(   26) = (   0.3333333   0.5773503   0.1457988), wk =   0.0370370
        k(   27) = (   0.3333333   0.5773503   0.2915977), wk =   0.0370370
        k(   28) = (   0.3333333   0.5773503  -0.4373965), wk =   0.0185185

     Dense  grid:    22583 G-vectors     FFT dimensions: (  36,  36,  45)

     Estimated max dynamical RAM per process >      32.99 MB

     Initial potential from superposition of free atoms

     starting charge      15.9987, renormalised to      16.0000
     Starting wfcs are   13 randomized atomic wfcs

     total cpu time spent up to now is        1.1 secs

     Self-consistent Calculation

     iteration #  1     ecut=    90.00 Ry     beta= 0.70
     Davidson diagonalization with overlap
     ethr =  1.00E-02,  avg # of iterations =  3.8

     total cpu time spent up to now is        2.6 secs

     total energy              =    -130.49230267 Ry
     estimated scf accuracy    <       0.31354989 Ry

     iteration #  2     ecut=    90.00 Ry     beta= 0.70
     Davidson diagonalization with overlap
     ethr =  1.96E-03,  avg # of iterations =  2.5

     total cpu time spent up to now is        3.6 secs

     total energy              =    -130.57743422 Ry
     estimated scf accuracy    <       0.05246227 Ry

     iteration #  3     ecut=    90.00 Ry     beta= 0.70
     Davidson diagonalization with overlap
     ethr =  3.28E-04,  avg # of iterations =  2.7

     total cpu time spent up to now is        4.4 secs

     total energy              =    -130.58753282 Ry
     estimated scf accuracy    <       0.00037912 Ry

     iteration #  4     ecut=    90.00 Ry     beta= 0.70
     Davidson diagonalization with overlap
     ethr =  2.37E-06,  avg # of iterations =  5.6

     total cpu time spent up to now is        5.5 secs

     total energy              =    -130.58761788 Ry
     estimated scf accuracy    <       0.00001110 Ry

     iteration #  5     ecut=    90.00 Ry     beta= 0.70
     Davidson diagonalization with overlap
     ethr =  6.94E-08,  avg # of iterations =  2.0

     total cpu time spent up to now is        6.3 secs

     End of self-consistent calculation

          k = 0.0000 0.0000 0.0000 (  2835 PWs)   bands (ev):

   -65.9906 -32.7713 -32.7713 -32.7540  -3.2135   6.2823   9.5961   9.5962
    10.9098  15.5757  15.5757  17.3841

          k = 0.0000 0.0000 0.1458 (  2846 PWs)   bands (ev):

   -65.9906 -32.7712 -32.7712 -32.7558  -2.9767   4.7822   9.6830   9.6831
    12.9729  15.6564  15.6564  17.3400

          k = 0.0000 0.0000 0.2916 (  2804 PWs)   bands (ev):

   -65.9904 -32.7709 -32.7709 -32.7595  -2.3668   2.7456   9.8675   9.8675
    15.8313  15.8313  16.6438  17.2528

          k = 0.0000 0.0000-0.4374 (  2804 PWs)   bands (ev):

   -65.9904 -32.7708 -32.7708 -32.7614  -1.9244   1.7895   9.9658   9.9658
    15.9268  15.9268  17.2097  19.1617

          k = 0.0000 0.1925 0.0000 (  2801 PWs)   bands (ev):

   -65.9898 -32.7813 -32.7738 -32.7525  -2.7291   6.7528   7.5529   8.6816
    11.3500  15.1072  17.4588  17.6293

          k = 0.0000 0.1925 0.1458 (  2808 PWs)   bands (ev):

   -65.9897 -32.7811 -32.7736 -32.7543  -2.4985   5.2740   7.6770   8.7612
    13.3254  15.2783  16.4247  17.5484

          k = 0.0000 0.1925 0.2916 (  2812 PWs)   bands (ev):

   -65.9896 -32.7808 -32.7733 -32.7579  -1.9085   3.2721   7.9424   8.9298
    14.9042  15.5881  17.1982  17.7454

          k = 0.0000 0.1925-0.4374 (  2786 PWs)   bands (ev):

   -65.9895 -32.7807 -32.7732 -32.7597  -1.4876   2.3419   8.0923   9.0194
    14.4663  15.7836  17.8556  19.5558

          k = 0.0000 0.3849 0.0000 (  2801 PWs)   bands (ev):

   -65.9881 -32.8012 -32.7786 -32.7495  -1.3025   4.1337   7.4955   8.0989
    12.5255  14.2821  14.4489  17.9275

          k = 0.0000 0.3849 0.1458 (  2808 PWs)   bands (ev):

   -65.9880 -32.8010 -32.7784 -32.7513  -1.0893   4.2890   6.7018   7.5675
    12.7865  14.1180  15.2178  19.3548

          k = 0.0000 0.3849 0.2916 (  2812 PWs)   bands (ev):

   -65.9879 -32.8006 -32.7781 -32.7547  -0.5541   4.6174   4.8360   7.7195
    11.2218  14.8515  18.2700  19.2652

          k = 0.0000 0.3849-0.4374 (  2822 PWs)   bands (ev):

   -65.9878 -32.8004 -32.7780 -32.7565  -0.1873   3.9273   4.8833   7.8001
    10.5404  15.2322  18.6483  18.6675

          k = 0.0000-0.5774 0.0000 (  2812 PWs)   bands (ev):

   -65.9872 -32.8111 -32.7810 -32.7481   0.6949   1.3868   7.0477   9.4526
    12.3192  13.1655  14.5766  16.3760

          k = 0.0000-0.5774 0.1458 (  2806 PWs)   bands (ev):

   -65.9871 -32.8109 -32.7809 -32.7498   0.8818   1.5758   7.1170   8.2127
    10.6039  13.8598  16.3732  17.9303

          k = 0.0000-0.5774 0.2916 (  2816 PWs)   bands (ev):

   -65.9870 -32.8104 -32.7805 -32.7531   1.3483   2.0234   6.4636   7.2633
     8.7324  14.5479  18.6822  18.8131

          k = 0.0000-0.5774-0.4374 (  2836 PWs)   bands (ev):

   -65.9870 -32.8102 -32.7804 -32.7548   1.6638   2.3001   5.6743   7.3407
     7.9525  14.9870  18.0599  18.1933

          k = 0.1667 0.2887 0.0000 (  2799 PWs)   bands (ev):

   -65.9885 -32.7943 -32.7793 -32.7503  -1.7735   5.6567   6.6941   7.6717
    12.3253  15.4603  16.3297  16.7601

          k = 0.1667 0.2887 0.1458 (  2804 PWs)   bands (ev):

   -65.9884 -32.7942 -32.7791 -32.7520  -1.5547   5.7978   6.2101   6.8398
    14.0473  14.2455  16.4778  17.6202

          k = 0.1667 0.2887 0.2916 (  2812 PWs)   bands (ev):

   -65.9883 -32.7938 -32.7788 -32.7555  -1.0021   4.2974   6.1248   7.0402
    12.4788  16.5224  17.1075  18.2245

          k = 0.1667 0.2887-0.4374 (  2814 PWs)   bands (ev):

   -65.9882 -32.7936 -32.7786 -32.7573  -0.6188   3.4153   6.3200   7.1587
    11.8395  16.4804  17.0189  18.4478

          k = 0.1667 0.4811 0.0000 (  2812 PWs)   bands (ev):

   -65.9872 -32.8060 -32.7861 -32.7481   0.0697   2.8130   5.4600   9.3149
    12.7934  13.9821  15.4841  17.2283

          k = 0.1667 0.4811 0.1458 (  2805 PWs)   bands (ev):

   -65.9871 -32.8058 -32.7859 -32.7498   0.2668   2.9822   5.5769   7.9935
    11.3375  15.6501  16.1936  17.4029

          k = 0.1667 0.4811 0.2916 (  2811 PWs)   bands (ev):

   -65.9870 -32.8054 -32.7856 -32.7531   0.7543   3.3845   5.8269   6.1906
     9.5787  15.2048  16.9189  19.5189

          k = 0.1667 0.4811-0.4374 (  2822 PWs)   bands (ev):

   -65.9870 -32.8052 -32.7854 -32.7548   1.0791   3.6362   5.3574   5.9964
     8.8390  14.6174  17.1189  21.4523

          k = 0.3333 0.5774 0.0000 (  2781 PWs)   bands (ev):

   -65.9868 -32.7991 -32.7991 -32.7473   1.9643   1.9643   3.3634  11.0426
    11.0426  15.4328  15.4328  18.3137

          k = 0.3333 0.5774 0.1458 (  2820 PWs)   bands (ev):

   -65.9867 -32.7989 -32.7989 -32.7490   2.1409   2.1409   3.5149   9.7388
     9.7388  15.5745  17.1954  17.1954

          k = 0.3333 0.5774 0.2916 (  2817 PWs)   bands (ev):

   -65.9866 -32.7985 -32.7985 -32.7523   2.5739   2.5739   3.8506   7.9948
     7.9949  13.5903  20.0092  20.0092

          k = 0.3333 0.5774-0.4374 (  2826 PWs)   bands (ev):

   -65.9865 -32.7983 -32.7983 -32.7540   2.8571   2.8571   4.0394   7.2340
     7.2340  12.8364  21.1792  21.1793

     the Fermi energy is     9.2669 ev

!    total energy              =    -130.58761980 Ry
     estimated scf accuracy    <       0.00000025 Ry
     smearing contrib. (-TS)   =      -0.00731974 Ry
     internal energy E=F+TS    =    -130.58030006 Ry

     The total energy is F=E-TS. E is the sum of the following terms:
     one-electron contribution =     -76.37427459 Ry
     hartree contribution      =      40.63313918 Ry
     xc contribution           =     -20.84773991 Ry
     ewald contribution        =     -73.99142474 Ry

     convergence has been achieved in   5 iterations

     Forces acting on atoms (cartesian axes, Ry/au):

     atom    1 type  1   force =     0.00000000    0.00000000   -0.00000000
     atom    2 type  2   force =     0.00000000   -0.00000000    0.00000000
     atom    3 type  2   force =     0.00000000    0.00000000   -0.00000000

     Total force =     0.000000     Total SCF correction =     0.000000


     Computing stress (Cartesian axis) and pressure

          total   stress  (Ry/bohr**3)                   (kbar)     P=       -0.64
  -0.00000410   0.00000000  -0.00000000           -0.60        0.00       -0.00
   0.00000000  -0.00000410   0.00000000            0.00       -0.60        0.00
   0.00000000  -0.00000000  -0.00000483            0.00       -0.00       -0.71


     Writing all to output data dir ./tmp/MgB2.save/ :
     XML data file, charge density, pseudopotentials, collected wavefunctions

     init_run     :      0.98s CPU      1.03s WALL (       1 calls)
     electrons    :      5.02s CPU      5.23s WALL (       1 calls)
     forces       :      0.11s CPU      0.11s WALL (       1 calls)
     stress       :      0.37s CPU      0.39s WALL (       1 calls)

     Called by init_run:
     wfcinit      :      0.68s CPU      0.71s WALL (       1 calls)
     potinit      :      0.12s CPU      0.12s WALL (       1 calls)
     hinit0       :      0.17s CPU      0.18s WALL (       1 calls)

     Called by electrons:
     c_bands      :      4.43s CPU      4.60s WALL (       5 calls)
     sum_band     :      0.51s CPU      0.54s WALL (       5 calls)
     v_of_rho     :      0.09s CPU      0.10s WALL (       6 calls)
     mix_rho      :      0.01s CPU      0.01s WALL (       5 calls)

     Called by c_bands:
     init_us_2    :      0.13s CPU      0.14s WALL (     364 calls)
     cegterg      :      4.30s CPU      4.46s WALL (     140 calls)

     Called by *egterg:
     cdiaghg      :      0.06s CPU      0.06s WALL (     603 calls)
     h_psi        :      3.80s CPU      3.95s WALL (     631 calls)
     g_psi        :      0.02s CPU      0.03s WALL (     463 calls)

     Called by h_psi:
     h_psi:calbec :      0.33s CPU      0.33s WALL (     631 calls)
     vloc_psi     :      3.15s CPU      3.28s WALL (     631 calls)
                                        0.00s GPU  (     631 calls)
     add_vuspsi   :      0.29s CPU      0.30s WALL (     631 calls)

     General routines
     calbec       :      0.62s CPU      0.63s WALL (    1107 calls)
     fft          :      0.04s CPU      0.04s WALL (      84 calls)
     ffts         :      0.00s CPU      0.00s WALL (       5 calls)
     fftw         :      3.13s CPU      3.27s WALL (   11322 calls)


     PWSCF        :      6.54s CPU      6.84s WALL


   This run was terminated on:  21: 1:40  10Jan2026            

=------------------------------------------------------------------------------=
   JOB DONE.
=------------------------------------------------------------------------------=
