
     Program PWSCF v.7.5 starts on  8Jan2026 at 19:55: 4 

     This program is part of the open-source Quantum ESPRESSO suite
     for quantum simulation of materials; please cite
         "P. Giannozzi et al., J. Phys.:Condens. Matter 21 395502 (2009);
         "P. Giannozzi et al., J. Phys.:Condens. Matter 29 465901 (2017);
         "P. Giannozzi et al., J. Chem. Phys. 152 154105 (2020);
          URL http://www.quantum-espresso.org", 
     in publications or presentations arising from this work. More details at
     http://www.quantum-espresso.org/quote

     Serial version
     900 MiB available memory on the printing compute node when the environment starts

     Waiting for input...
     Reading input from standard input

     Current dimensions of program PWSCF are:
     Max number of different atomic species (ntypx) = 10
     Max number of k-points (npk) =  40000
     Max angular momentum in pseudopotentials (lmaxx) =  4
     Message from routine setup:
     using ibrav=0 with symmetry is DISCOURAGED, use correct ibrav instead


     G-vector sticks info
     --------------------
     sticks:   dense  smooth     PW     G-vecs:    dense   smooth      PW
     Sum         593     593    185                17861    17861    3073

     Using Slab Decomposition



     bravais-lattice index     =            0
     lattice parameter (alat)  =       5.3818  a.u.
     unit-cell volume          =     131.8132 (a.u.)^3
     number of atoms/cell      =            2
     number of atomic types    =            2
     number of electrons       =        22.00
     number of Kohn-Sham states=           15
     kinetic-energy cutoff     =     100.0000  Ry
     charge density cutoff     =     400.0000  Ry
     scf convergence threshold =      1.0E-06
     mixing beta               =       0.7000
     number of iterations used =            8  plain     mixing
     energy convergence thresh.=      1.0E-04
     force convergence thresh. =      1.0E-03
     press convergence thresh. =      5.0E-01
     Exchange-correlation= PBE
                           (   1   4   3   4   0   0   0)
     nstep                     =           50


     celldm(1)=   5.381766  celldm(2)=   0.000000  celldm(3)=   0.000000
     celldm(4)=   0.000000  celldm(5)=   0.000000  celldm(6)=   0.000000

     crystal axes: (cart. coord. in units of alat)
               a(1) = (   0.800000   0.000000   0.000000 )  
               a(2) = (   0.000000   0.800000   0.000000 )  
               a(3) = (   0.000000   0.000000   1.321309 )  

     reciprocal axes: (cart. coord. in units 2 pi/alat)
               b(1) = (  1.250000  0.000000  0.000000 )  
               b(2) = (  0.000000  1.250000  0.000000 )  
               b(3) = (  0.000000  0.000000  0.756825 )  


     PseudoPot. # 1 for Si read from file:
     ./PSEUDO/Si.upf
     MD5 check sum: 02fab3f35e82123ef5bf1cb05d5b1a5e
     Pseudo is Norm-conserving + core correction, Zval =  4.0
     Generated using ONCVPSP code by D. R. Hamann
     Using radial grid of 1510 points,  6 beta functions with: 
                l(1) =   0
                l(2) =   0
                l(3) =   1
                l(4) =   1
                l(5) =   2
                l(6) =   2

     PseudoPot. # 2 for Ni read from file:
     ./PSEUDO/Ni.upf
     MD5 check sum: 2b0a79d100e227970886d6963e34175b
     Pseudo is Norm-conserving + core correction, Zval = 18.0
     Generated using ONCVPSP code by D. R. Hamann
     Using radial grid of 1372 points,  6 beta functions with: 
                l(1) =   0
                l(2) =   0
                l(3) =   1
                l(4) =   1
                l(5) =   2
                l(6) =   2

     atomic species   valence    mass     pseudopotential
     Si                4.00    28.08550     Si( 1.00)
     Ni               18.00    58.69340     Ni( 1.00)

     16 Sym. Ops., with inversion, found



   Cartesian axes

     site n.     atom                  positions (alat units)
         1        Si     tau(   1) = (   0.0000000   0.0000000   0.0000000  )
         2        Ni     tau(   2) = (   0.4000000   0.4000000   0.6606546  )

     number of k points=    40  Methfessel-Paxton smearing, width (Ry)=  0.0400
                       cart. coord. in units 2pi/alat
        k(    1) = (   0.0000000   0.0000000   0.0000000), wk =   0.0092593
        k(    2) = (   0.0000000   0.0000000   0.1261375), wk =   0.0185185
        k(    3) = (   0.0000000   0.0000000   0.2522750), wk =   0.0185185
        k(    4) = (   0.0000000   0.0000000  -0.3784126), wk =   0.0092593
        k(    5) = (   0.0000000   0.2083333   0.0000000), wk =   0.0370370
        k(    6) = (   0.0000000   0.2083333   0.1261375), wk =   0.0740741
        k(    7) = (   0.0000000   0.2083333   0.2522750), wk =   0.0740741
        k(    8) = (   0.0000000   0.2083333  -0.3784126), wk =   0.0370370
        k(    9) = (   0.0000000   0.4166667   0.0000000), wk =   0.0370370
        k(   10) = (   0.0000000   0.4166667   0.1261375), wk =   0.0740741
        k(   11) = (   0.0000000   0.4166667   0.2522750), wk =   0.0740741
        k(   12) = (   0.0000000   0.4166667  -0.3784126), wk =   0.0370370
        k(   13) = (   0.0000000  -0.6250000   0.0000000), wk =   0.0185185
        k(   14) = (   0.0000000  -0.6250000   0.1261375), wk =   0.0370370
        k(   15) = (   0.0000000  -0.6250000   0.2522750), wk =   0.0370370
        k(   16) = (   0.0000000  -0.6250000  -0.3784126), wk =   0.0185185
        k(   17) = (   0.2083333   0.2083333   0.0000000), wk =   0.0370370
        k(   18) = (   0.2083333   0.2083333   0.1261375), wk =   0.0740741
        k(   19) = (   0.2083333   0.2083333   0.2522750), wk =   0.0740741
        k(   20) = (   0.2083333   0.2083333  -0.3784126), wk =   0.0370370
        k(   21) = (   0.2083333   0.4166667   0.0000000), wk =   0.0740741
        k(   22) = (   0.2083333   0.4166667   0.1261375), wk =   0.1481481
        k(   23) = (   0.2083333   0.4166667   0.2522750), wk =   0.1481481
        k(   24) = (   0.2083333   0.4166667  -0.3784126), wk =   0.0740741
        k(   25) = (   0.2083333  -0.6250000   0.0000000), wk =   0.0370370
        k(   26) = (   0.2083333  -0.6250000   0.1261375), wk =   0.0740741
        k(   27) = (   0.2083333  -0.6250000   0.2522750), wk =   0.0740741
        k(   28) = (   0.2083333  -0.6250000  -0.3784126), wk =   0.0370370
        k(   29) = (   0.4166667   0.4166667   0.0000000), wk =   0.0370370
        k(   30) = (   0.4166667   0.4166667   0.1261375), wk =   0.0740741
        k(   31) = (   0.4166667   0.4166667   0.2522750), wk =   0.0740741
        k(   32) = (   0.4166667   0.4166667  -0.3784126), wk =   0.0370370
        k(   33) = (   0.4166667  -0.6250000   0.0000000), wk =   0.0370370
        k(   34) = (   0.4166667  -0.6250000   0.1261375), wk =   0.0740741
        k(   35) = (   0.4166667  -0.6250000   0.2522750), wk =   0.0740741
        k(   36) = (   0.4166667  -0.6250000  -0.3784126), wk =   0.0370370
        k(   37) = (  -0.6250000  -0.6250000   0.0000000), wk =   0.0092593
        k(   38) = (  -0.6250000  -0.6250000   0.1261375), wk =   0.0185185
        k(   39) = (  -0.6250000  -0.6250000   0.2522750), wk =   0.0185185
        k(   40) = (  -0.6250000  -0.6250000  -0.3784126), wk =   0.0092593

     Dense  grid:    17861 G-vectors     FFT dimensions: (  27,  27,  45)

     Estimated max dynamical RAM per process >      40.85 MB

     Initial potential from superposition of free atoms

     starting charge      21.9992, renormalised to      22.0000
     Starting wfcs are   14 randomized atomic wfcs +    1 random wfcs

     total cpu time spent up to now is        1.8 secs

     Self-consistent Calculation

     iteration #  1     ecut=   100.00 Ry     beta= 0.70
     Davidson diagonalization with overlap
     ethr =  1.00E-02,  avg # of iterations =  3.7

     Threshold (ethr) on eigenvalues was too large:
     Diagonalizing with lowered threshold

     Davidson diagonalization with overlap
     ethr =  7.34E-04,  avg # of iterations =  1.1

     total cpu time spent up to now is        4.4 secs

     total energy              =    -343.90755833 Ry
     estimated scf accuracy    <       0.15585788 Ry

     iteration #  2     ecut=   100.00 Ry     beta= 0.70
     Davidson diagonalization with overlap
     ethr =  7.08E-04,  avg # of iterations =  3.2

     total cpu time spent up to now is        6.0 secs

     total energy              =    -343.72981375 Ry
     estimated scf accuracy    <       2.26769009 Ry

     iteration #  3     ecut=   100.00 Ry     beta= 0.70
     Davidson diagonalization with overlap
     ethr =  7.08E-04,  avg # of iterations =  2.5

     total cpu time spent up to now is        7.5 secs

     total energy              =    -344.00863479 Ry
     estimated scf accuracy    <       0.00304619 Ry

     iteration #  4     ecut=   100.00 Ry     beta= 0.70
     Davidson diagonalization with overlap
     ethr =  1.38E-05,  avg # of iterations =  3.0

     total cpu time spent up to now is        8.8 secs

     total energy              =    -344.00915280 Ry
     estimated scf accuracy    <       0.00023994 Ry

     iteration #  5     ecut=   100.00 Ry     beta= 0.70
     Davidson diagonalization with overlap
     ethr =  1.09E-06,  avg # of iterations =  2.7

     total cpu time spent up to now is       10.0 secs

     total energy              =    -344.00918332 Ry
     estimated scf accuracy    <       0.00000955 Ry

     iteration #  6     ecut=   100.00 Ry     beta= 0.70
     Davidson diagonalization with overlap
     ethr =  4.34E-08,  avg # of iterations =  2.4

     total cpu time spent up to now is       11.3 secs

     total energy              =    -344.00918545 Ry
     estimated scf accuracy    <       0.00000120 Ry

     iteration #  7     ecut=   100.00 Ry     beta= 0.70
     Davidson diagonalization with overlap
     ethr =  5.46E-09,  avg # of iterations =  1.6

     total cpu time spent up to now is       12.5 secs

     End of self-consistent calculation

          k = 0.0000 0.0000 0.0000 (  2239 PWs)   bands (ev):

   -84.2662 -44.7586 -44.4754 -44.4754   3.8445  13.7259  13.9933  15.0588
    17.8569  17.8569  18.8252  20.6679  28.0368  30.0669  30.0669

          k = 0.0000 0.0000 0.1261 (  2231 PWs)   bands (ev):

   -84.2661 -44.7589 -44.4754 -44.4754   4.0759  11.8590  15.0745  15.1425
    17.8349  17.8349  18.8258  21.8502  27.9298  30.3475  30.3475

          k = 0.0000 0.0000 0.2523 (  2222 PWs)   bands (ev):

   -84.2661 -44.7595 -44.4753 -44.4753   4.6595   9.9685  15.1063  15.6334
    17.7915  17.7915  18.8269  24.6125  27.7214  31.0447  31.0447

          k = 0.0000 0.0000-0.3784 (  2230 PWs)   bands (ev):

   -84.2661 -44.7597 -44.4753 -44.4753   5.0648   9.0961  15.1224  15.7542
    17.7701  17.7701  18.8275  26.8164  27.6199  31.0662  31.5232

          k = 0.0000 0.2083 0.0000 (  2216 PWs)   bands (ev):

   -84.2570 -44.7505 -44.5518 -44.4690   4.6275  14.0360  14.2957  15.3133
    17.9235  18.2251  18.4870  20.8844  23.0580  30.7855  32.3545

          k = 0.0000 0.2083 0.1261 (  2214 PWs)   bands (ev):

   -84.2570 -44.7507 -44.5518 -44.4690   4.8474  12.4458  15.2000  15.3811
    17.7767  17.9033  18.4883  22.3895  23.2411  31.0364  31.8249

          k = 0.0000 0.2083 0.2523 (  2216 PWs)   bands (ev):

   -84.2570 -44.7513 -44.5518 -44.4690   5.3953  10.7196  15.3606  15.8253
    17.2308  17.8634  18.4906  23.6146  25.4411  30.7994  31.6414

          k = 0.0000 0.2083-0.3784 (  2224 PWs)   bands (ev):

   -84.2570 -44.7515 -44.5517 -44.4689   5.7667   9.9156  15.3891  16.0572
    16.9657  17.8438  18.4917  23.8246  27.8606  30.3171  31.3800

          k = 0.0000 0.4167 0.0000 (  2222 PWs)   bands (ev):

   -84.2387 -44.7342 -44.7034 -44.4562   6.9148  13.9999  14.5196  15.2261
    17.8672  18.0583  19.3657  19.6821  21.6797  27.7671  31.1245

          k = 0.0000 0.4167 0.1261 (  2220 PWs)   bands (ev):

   -84.2387 -44.7344 -44.7034 -44.4562   7.0982  13.5172  14.6277  15.3815
    17.8686  18.0418  18.1102  19.6628  23.7142  26.7273  32.9825

          k = 0.0000 0.4167 0.2523 (  2221 PWs)   bands (ev):

   -84.2387 -44.7348 -44.7033 -44.4562   7.5350  12.6489  14.6527  15.6346
    17.0114  17.8715  18.0090  19.8078  24.9132  27.5389  33.3813

          k = 0.0000 0.4167-0.3784 (  2216 PWs)   bands (ev):

   -84.2387 -44.7350 -44.7033 -44.4561   7.8081  12.1708  14.6407  15.7344
    16.7057  17.8731  17.9925  19.8998  24.4698  30.3864  32.1668

          k = 0.0000-0.6250 0.0000 (  2238 PWs)   bands (ev):

   -84.2296 -44.7786 -44.7260 -44.4498  10.2913  10.7414  13.9340  15.5583
    17.5803  18.1265  19.4914  21.6765  22.8630  24.2685  28.1822

          k = 0.0000-0.6250 0.1261 (  2232 PWs)   bands (ev):

   -84.2296 -44.7786 -44.7262 -44.4498  10.5353  10.6689  14.1894  15.4945
    17.5817  18.1117  18.4954  21.1563  21.8257  26.4147  29.6573

          k = 0.0000-0.6250 0.2523 (  2226 PWs)   bands (ev):

   -84.2296 -44.7785 -44.7266 -44.4497  10.5399  11.1597  14.7866  15.1702
    17.0818  17.5844  18.0823  19.4443  21.9275  29.4987  33.0415

          k = 0.0000-0.6250-0.3784 (  2228 PWs)   bands (ev):

   -84.2296 -44.7785 -44.7268 -44.4497  10.4817  11.6086  14.7509  15.1754
    16.6180  17.5857  18.0677  18.6916  21.9515  32.7289  32.9480

          k = 0.2083 0.2083 0.0000 (  2206 PWs)   bands (ev):

   -84.2480 -44.7425 -44.5470 -44.5425   5.3998  14.1912  14.8015  15.6109
    17.3046  18.0807  19.1870  21.2510  22.4064  26.2765  34.1941

          k = 0.2083 0.2083 0.1261 (  2216 PWs)   bands (ev):

   -84.2479 -44.7427 -44.5470 -44.5425   5.6084  12.9764  15.4750  15.6457
    17.1952  18.0537  18.4584  22.6343  23.0136  26.4636  32.9541

          k = 0.2083 0.2083 0.2523 (  2224 PWs)   bands (ev):

   -84.2479 -44.7432 -44.5469 -44.5425   6.1218  11.4306  15.7271  16.0192
    16.9772  17.6622  18.1441  23.1162  25.7358  27.3953  31.3450

          k = 0.2083 0.2083-0.3784 (  2230 PWs)   bands (ev):

   -84.2479 -44.7434 -44.5469 -44.5425   6.4620  10.6979  15.7765  16.2686
    16.8649  17.3767  18.1325  23.3778  26.4436  30.2127  31.2674

          k = 0.2083 0.4167 0.0000 (  2234 PWs)   bands (ev):

   -84.2298 -44.7264 -44.6951 -44.5306   7.6521  14.3310  14.8188  15.8165
    17.1179  17.5052  19.4579  20.8527  22.4486  26.9994  28.3186

          k = 0.2083 0.4167 0.1261 (  2231 PWs)   bands (ev):

   -84.2298 -44.7266 -44.6951 -44.5306   7.8241  13.9460  14.8567  15.9755
    16.9912  17.5890  19.0797  19.8942  24.5735  27.1302  27.2470

          k = 0.2083 0.4167 0.2523 (  2222 PWs)   bands (ev):

   -84.2298 -44.7270 -44.6950 -44.5306   8.2292  13.1873  14.9137  16.1869
    16.7682  17.7138  18.0585  20.0717  25.6287  26.6789  28.7752

          k = 0.2083 0.4167-0.3784 (  2222 PWs)   bands (ev):

   -84.2298 -44.7272 -44.6950 -44.5305   8.4781  12.7707  14.9336  16.2543
    16.6951  17.6163  17.8624  20.2460  25.0433  26.9442  32.5106

          k = 0.2083-0.6250 0.0000 (  2232 PWs)   bands (ev):

   -84.2207 -44.7696 -44.7184 -44.5235  11.0217  11.3013  14.3043  16.2300
    16.8746  17.2106  19.4709  23.2337  24.1162  24.3815  28.3948

          k = 0.2083-0.6250 0.1261 (  2226 PWs)   bands (ev):

   -84.2207 -44.7696 -44.7185 -44.5235  11.2390  11.2509  14.4078  16.1976
    17.0517  17.1192  19.0381  22.0200  22.6522  26.5877  29.8804

          k = 0.2083-0.6250 0.2523 (  2224 PWs)   bands (ev):

   -84.2207 -44.7695 -44.7189 -44.5235  11.1566  11.7733  14.6102  15.9722
    16.9276  17.6110  18.1966  20.1347  22.1583  28.3462  30.5283

          k = 0.2083-0.6250-0.3784 (  2220 PWs)   bands (ev):

   -84.2207 -44.7695 -44.7191 -44.5235  11.1121  12.1275  14.7090  15.6772
    16.8577  17.8561  18.4411  18.8432  22.0428  28.8960  30.6745

          k = 0.4167 0.4167 0.0000 (  2230 PWs)   bands (ev):

   -84.2118 -44.7108 -44.6805 -44.6761   9.7726  14.8806  14.9872  16.1965
    16.4923  17.5477  19.2722  22.7575  23.0830  24.6357  29.0348

          k = 0.4167 0.4167 0.1261 (  2232 PWs)   bands (ev):

   -84.2118 -44.7110 -44.6805 -44.6761   9.9060  14.4579  15.4443  15.5877
    17.1015  17.6522  19.5482  20.9504  23.0178  26.4085  28.7071

          k = 0.4167 0.4167 0.2523 (  2227 PWs)   bands (ev):

   -84.2118 -44.7113 -44.6804 -44.6761  10.2081  13.9917  15.0873  16.1556
    17.5307  17.8114  19.0365  20.3260  22.6010  26.4863  27.9059

          k = 0.4167 0.4167-0.3784 (  2220 PWs)   bands (ev):

   -84.2118 -44.7115 -44.6804 -44.6761  10.3836  13.7673  14.9116  16.9551
    17.4505  17.6479  18.2595  20.8871  22.3863  25.4749  28.4166

          k = 0.4167-0.6250 0.0000 (  2230 PWs)   bands (ev):

   -84.2028 -44.7516 -44.7030 -44.6699  12.6296  13.1026  15.1521  16.0665
    16.0799  17.4360  19.3823  24.5379  24.6018  24.7570  26.4447

          k = 0.4167-0.6250 0.1261 (  2234 PWs)   bands (ev):

   -84.2028 -44.7516 -44.7031 -44.6699  12.6665  13.1767  14.6384  16.1534
    16.8796  17.5809  19.3315  23.5167  23.9149  24.4084  25.2913

          k = 0.4167-0.6250 0.2523 (  2228 PWs)   bands (ev):

   -84.2028 -44.7515 -44.7035 -44.6699  12.7304  13.2957  14.1722  16.6034
    17.8074  18.2025  18.8754  21.7185  22.6332  24.0805  24.7117

          k = 0.4167-0.6250-0.3784 (  2248 PWs)   bands (ev):

   -84.2028 -44.7515 -44.7037 -44.6699  12.7548  13.3385  14.0257  17.3069
    17.9366  18.0310  19.2681  20.4989  22.2973  23.9024  24.4866

          k =-0.6250-0.6250 0.0000 (  2252 PWs)   bands (ev):

   -84.1939 -44.7425 -44.7425 -44.6953  13.3556  15.6486  15.6486  15.9431
    16.1185  16.1185  19.5970  22.4317  22.4622  25.1503  29.5675

          k =-0.6250-0.6250 0.1261 (  2244 PWs)   bands (ev):

   -84.1939 -44.7425 -44.7425 -44.6954  13.4440  14.8210  14.8210  16.2189
    17.3098  17.3098  19.5970  21.8947  21.9264  25.4546  26.7499

          k =-0.6250-0.6250 0.2523 (  2240 PWs)   bands (ev):

   -84.1939 -44.7425 -44.7425 -44.6958  13.6349  14.1932  14.1932  16.9594
    18.9772  18.9772  19.5971  20.6617  21.0733  24.1221  24.1221

          k =-0.6250-0.6250-0.3784 (  2208 PWs)   bands (ev):

   -84.1939 -44.7425 -44.7425 -44.6959  13.7387  13.9802  13.9802  17.5736
    19.5972  19.8150  20.2335  20.2335  20.6997  22.5499  22.5499

     the Fermi energy is    19.5796 ev

!    total energy              =    -344.00918553 Ry
     estimated scf accuracy    <       0.00000006 Ry
     smearing contrib. (-TS)   =      -0.00085094 Ry
     internal energy E=F+TS    =    -344.00833458 Ry

     The total energy is F=E-TS. E is the sum of the following terms:
     one-electron contribution =    -223.54460514 Ry
     hartree contribution      =     127.64865309 Ry
     xc contribution           =     -46.42135115 Ry
     ewald contribution        =    -201.69103138 Ry

     convergence has been achieved in   7 iterations

     Forces acting on atoms (cartesian axes, Ry/au):

     atom    1 type  1   force =     0.00000000    0.00000000    0.00000000
     atom    2 type  2   force =     0.00000000    0.00000000    0.00000000

     Total force =     0.000000     Total SCF correction =     0.000000


     Computing stress (Cartesian axis) and pressure

          total   stress  (Ry/bohr**3)                   (kbar)     P=      484.20
   0.00491292   0.00000000   0.00000000          722.72        0.00        0.00
   0.00000000   0.00491292   0.00000000            0.00      722.72        0.00
   0.00000000   0.00000000   0.00004870            0.00        0.00        7.16


     BFGS Geometry Optimization
     Energy error            =      7.8E-06 Ry
     Gradient error          =      0.0E+00 Ry/Bohr
     Cell gradient error     =      7.2E+00 kbar

     number of scf cycles    =   1
     number of bfgs steps    =   0

     enthalpy           new  =    -344.0091855278 Ry

     new trust radius        =       0.0027954406 bohr
     new conv_thr            =       0.0000010000 Ry

     new unit-cell volume =    131.97369 a.u.^3 (    19.55648 Ang^3 )
     density =      7.36839 g/cm^3

CELL_PARAMETERS (alat=  5.38176635)
   0.800000000   0.000000000   0.000000000
   0.000000000   0.800000000   0.000000000
   0.000000000   0.000000000   1.322917789

ATOMIC_POSITIONS (crystal)
Si               0.0000000000        0.0000000000        0.0000000000
Ni               0.5000000000        0.5000000000        0.5000000000



     Writing config-only to output data dir ./tmp/SiNi-vc-relax.save/ :
     XML data file
     NEW-OLD atomic charge density approx. for the potential
     New effective cutoffs (rho, wfc):  399.13   99.99

     total cpu time spent up to now is       13.5 secs

     Self-consistent Calculation

     iteration #  1     ecut=   100.00 Ry     beta= 0.70
     Davidson diagonalization with overlap
     ethr =  1.00E-06,  avg # of iterations =  2.9

     Threshold (ethr) on eigenvalues was too large:
     Diagonalizing with lowered threshold

     Davidson diagonalization with overlap
     ethr =  1.53E-08,  avg # of iterations =  2.3

     total cpu time spent up to now is       16.3 secs

     total energy              =    -344.00919001 Ry
     estimated scf accuracy    <       0.00000427 Ry

     iteration #  2     ecut=   100.00 Ry     beta= 0.70
     Davidson diagonalization with overlap
     ethr =  1.94E-08,  avg # of iterations =  2.6

     total cpu time spent up to now is       17.8 secs

     total energy              =    -344.00918626 Ry
     estimated scf accuracy    <       0.00005531 Ry

     iteration #  3     ecut=   100.00 Ry     beta= 0.70
     Davidson diagonalization with overlap
     ethr =  1.94E-08,  avg # of iterations =  2.4

     total cpu time spent up to now is       19.2 secs

     End of self-consistent calculation

          k = 0.0000 0.0000 0.0000 (  2239 PWs)   bands (ev):

   -84.2909 -44.7824 -44.5002 -44.5002   3.8268  13.7013  13.9586  15.0363
    17.8348  17.8348  18.8012  20.6208  28.0115  30.0485  30.0485

          k = 0.0000 0.0000 0.1260 (  2231 PWs)   bands (ev):

   -84.2909 -44.7826 -44.5002 -44.5002   4.0571  11.8317  15.0519  15.1138
    17.8130  17.8130  18.8018  21.7995  27.9053  30.3276  30.3276

          k = 0.0000 0.0000 0.2520 (  2222 PWs)   bands (ev):

   -84.2909 -44.7832 -44.5002 -44.5002   4.6379   9.9456  15.0833  15.6059
    17.7701  17.7701  18.8029  24.5569  27.6986  31.0207  31.0207

          k = 0.0000 0.0000-0.3780 (  2230 PWs)   bands (ev):

   -84.2909 -44.7835 -44.5002 -44.5002   5.0408   9.0765  15.0992  15.7269
    17.7489  17.7489  18.8035  26.7608  27.5979  30.9913  31.4954

          k = 0.0000 0.2083 0.0000 (  2216 PWs)   bands (ev):

   -84.2818 -44.7742 -44.5767 -44.4939   4.6097  14.0054  14.2722  15.2917
    17.9013  18.1987  18.4634  20.8376  23.0334  30.7664  32.3284

          k = 0.0000 0.2083 0.1260 (  2214 PWs)   bands (ev):

   -84.2818 -44.7745 -44.5767 -44.4939   4.8287  12.4193  15.1747  15.3591
    17.7515  17.8813  18.4646  22.3399  23.2153  31.0159  31.7982

          k = 0.0000 0.2083 0.2520 (  2216 PWs)   bands (ev):

   -84.2818 -44.7750 -44.5766 -44.4938   5.3740  10.6971  15.3374  15.8004
    17.2082  17.8418  18.4669  23.5870  25.3865  30.7742  31.6172

          k = 0.0000 0.2083-0.3780 (  2224 PWs)   bands (ev):

   -84.2818 -44.7753 -44.5766 -44.4938   5.7431   9.8960  15.3657  16.0310
    16.9451  17.8224  18.4680  23.7957  27.8081  30.2922  31.3085

          k = 0.0000 0.4167 0.0000 (  2222 PWs)   bands (ev):

   -84.2635 -44.7580 -44.7283 -44.4811   6.8970  13.9763  14.5037  15.2028
    17.8441  18.0358  19.3362  19.6486  21.6345  27.7290  31.0849

          k = 0.0000 0.4167 0.1260 (  2220 PWs)   bands (ev):

   -84.2635 -44.7582 -44.7282 -44.4811   7.0796  13.4948  14.6107  15.3582
    17.8454  18.0195  18.0801  19.6308  23.6688  26.6916  32.6338

          k = 0.0000 0.4167 0.2520 (  2221 PWs)   bands (ev):

   -84.2635 -44.7586 -44.7282 -44.4811   7.5143  12.6278  14.6345  15.6114
    16.9856  17.8483  17.9870  19.7738  24.8859  27.4856  33.3573

          k = 0.0000 0.4167-0.3780 (  2216 PWs)   bands (ev):

   -84.2635 -44.7588 -44.7281 -44.4810   7.7858  12.1512  14.6220  15.7110
    16.6820  17.8499  17.9708  19.8643  24.4451  30.3384  32.0947

          k = 0.0000-0.6250 0.0000 (  2238 PWs)   bands (ev):

   -84.2544 -44.8034 -44.7498 -44.4747  10.2744  10.7238  13.9129  15.5349
    17.5573  18.1039  19.4617  21.6420  22.8245  24.2279  28.1335

          k = 0.0000-0.6250 0.1260 (  2232 PWs)   bands (ev):

   -84.2544 -44.8034 -44.7500 -44.4747  10.5174  10.6512  14.1688  15.4711
    17.5587  18.0892  18.4655  21.1196  21.7957  26.3708  29.6033

          k = 0.0000-0.6250 0.2520 (  2226 PWs)   bands (ev):

   -84.2544 -44.8033 -44.7504 -44.4746  10.5221  11.1391  14.7673  15.1475
    17.0548  17.5614  18.0602  19.4084  21.9008  29.4499  32.9777

          k = 0.0000-0.6250-0.3780 (  2228 PWs)   bands (ev):

   -84.2544 -44.8033 -44.7505 -44.4746  10.4638  11.5857  14.7298  15.1574
    16.5924  17.5627  18.0458  18.6550  21.9255  32.6900  32.8787

          k = 0.2083 0.2083 0.0000 (  2206 PWs)   bands (ev):

   -84.2728 -44.7662 -44.5718 -44.5674   5.3820  14.1629  14.7794  15.5895
    17.2831  18.0573  19.1572  21.2044  22.3822  26.2517  34.1594

          k = 0.2083 0.2083 0.1260 (  2216 PWs)   bands (ev):

   -84.2727 -44.7665 -44.5718 -44.5674   5.5897  12.9508  15.4512  15.6240
    17.1743  18.0297  18.4305  22.6088  22.9649  26.4370  32.9247

          k = 0.2083 0.2083 0.2520 (  2224 PWs)   bands (ev):

   -84.2727 -44.7669 -44.5718 -44.5674   6.1006  11.4084  15.7047  15.9945
    16.9579  17.6370  18.1206  23.0880  25.6937  27.3530  31.3206

          k = 0.2083 0.2083-0.3780 (  2230 PWs)   bands (ev):

   -84.2727 -44.7672 -44.5718 -44.5674   6.4388  10.6782  15.7536  16.2426
    16.8464  17.3534  18.1091  23.3481  26.4120  30.1571  31.2174

          k = 0.2083 0.4167 0.0000 (  2234 PWs)   bands (ev):

   -84.2546 -44.7502 -44.7199 -44.5555   7.6344  14.3079  14.8023  15.7945
    17.0959  17.4819  19.4290  20.8177  22.4042  26.9734  28.2815

          k = 0.2083 0.4167 0.1260 (  2231 PWs)   bands (ev):

   -84.2546 -44.7504 -44.7199 -44.5555   7.8056  13.9238  14.8399  15.9529
    16.9694  17.5655  19.0493  19.8624  24.5287  27.1015  27.2138

          k = 0.2083 0.4167 0.2520 (  2222 PWs)   bands (ev):

   -84.2546 -44.7508 -44.7199 -44.5554   8.2087  13.1668  14.8962  16.1639
    16.7454  17.6898  18.0330  20.0386  25.6016  26.6483  28.7243

          k = 0.2083 0.4167-0.3780 (  2222 PWs)   bands (ev):

   -84.2546 -44.7510 -44.7198 -44.5554   8.4563  12.7515  14.9159  16.2316
    16.6705  17.5928  17.8394  20.2112  25.0188  26.9161  32.4480

          k = 0.2083-0.6250 0.0000 (  2232 PWs)   bands (ev):

   -84.2455 -44.7944 -44.7421 -44.5484  11.0047  11.2843  14.2834  16.2072
    16.8507  17.1886  19.4417  23.1980  24.0795  24.3419  28.3473

          k = 0.2083-0.6250 0.1260 (  2226 PWs)   bands (ev):

   -84.2455 -44.7944 -44.7423 -44.5484  11.2211  11.2337  14.3878  16.1749
    17.0269  17.0971  19.0087  21.9847  22.6213  26.5492  29.8370

          k = 0.2083-0.6250 0.2520 (  2224 PWs)   bands (ev):

   -84.2455 -44.7943 -44.7427 -44.5484  11.1391  11.7532  14.5917  15.9500
    16.9039  17.5844  18.1704  20.1016  22.1319  28.3147  30.5022

          k = 0.2083-0.6250-0.3780 (  2220 PWs)   bands (ev):

   -84.2455 -44.7943 -44.7428 -44.5484  11.0946  12.1057  14.6912  15.6558
    16.8325  17.8328  18.4177  18.8070  22.0172  28.8687  30.6479

          k = 0.4167 0.4167 0.0000 (  2230 PWs)   bands (ev):

   -84.2366 -44.7346 -44.7054 -44.7009   9.7553  14.8621  14.9655  16.1758
    16.4746  17.5255  19.2449  22.7200  23.0524  24.5932  29.0082

          k = 0.4167 0.4167 0.1260 (  2232 PWs)   bands (ev):

   -84.2366 -44.7348 -44.7053 -44.7009   9.8882  14.4383  15.4236  15.5703
    17.0805  17.6294  19.5200  20.9163  22.9883  26.3667  28.6743

          k = 0.4167 0.4167 0.2520 (  2227 PWs)   bands (ev):

   -84.2366 -44.7351 -44.7053 -44.7009  10.1888  13.9730  15.0713  16.1332
    17.5082  17.7868  19.0084  20.2943  22.5727  26.4600  27.8744

          k = 0.4167 0.4167-0.3780 (  2220 PWs)   bands (ev):

   -84.2366 -44.7353 -44.7053 -44.7009  10.3634  13.7493  14.8961  16.9299
    17.4238  17.6250  18.2372  20.8519  22.3587  25.4531  28.3884

          k = 0.4167-0.6250 0.0000 (  2230 PWs)   bands (ev):

   -84.2276 -44.7764 -44.7268 -44.6948  12.6141  13.0853  15.1316  16.0436
    16.0591  17.4155  19.3553  24.5092  24.5753  24.7215  26.4061

          k = 0.4167-0.6250 0.1260 (  2234 PWs)   bands (ev):

   -84.2276 -44.7764 -44.7269 -44.6948  12.6507  13.1591  14.6192  16.1329
    16.8546  17.5593  19.3036  23.4841  23.8877  24.3795  25.2591

          k = 0.4167-0.6250 0.2520 (  2228 PWs)   bands (ev):

   -84.2276 -44.7764 -44.7273 -44.6947  12.7142  13.2779  14.1541  16.5817
    17.7843  18.1736  18.8469  21.6895  22.6091  24.0531  24.6828

          k = 0.4167-0.6250-0.3780 (  2248 PWs)   bands (ev):

   -84.2276 -44.7763 -44.7274 -44.6947  12.7384  13.3207  14.0078  17.2824
    17.9095  18.0086  19.2327  20.4761  22.2741  23.8759  24.4584

          k =-0.6250-0.6250 0.0000 (  2252 PWs)   bands (ev):

   -84.2187 -44.7674 -44.7674 -44.7191  13.3397  15.6283  15.6283  15.9267
    16.0998  16.0998  19.5722  22.4007  22.4292  25.1195  29.5257

          k =-0.6250-0.6250 0.1260 (  2244 PWs)   bands (ev):

   -84.2187 -44.7674 -44.7674 -44.7192  13.4277  14.8038  14.8038  16.2015
    17.2869  17.2869  19.5723  21.8649  21.8956  25.4236  26.7153

          k =-0.6250-0.6250 0.2520 (  2240 PWs)   bands (ev):

   -84.2187 -44.7673 -44.7673 -44.7196  13.6175  14.1777  14.1777  16.9388
    18.9489  18.9489  19.5724  20.6356  21.0458  24.0945  24.0945

          k =-0.6250-0.6250-0.3780 (  2208 PWs)   bands (ev):

   -84.2187 -44.7673 -44.7673 -44.7197  13.7207  13.9652  13.9652  17.5495
    19.5725  19.7927  20.1969  20.1969  20.6737  22.5310  22.5310

     the Fermi energy is    19.5492 ev

!    total energy              =    -344.00919282 Ry
     estimated scf accuracy    <       0.00000002 Ry
     smearing contrib. (-TS)   =      -0.00086620 Ry
     internal energy E=F+TS    =    -344.00832662 Ry

     The total energy is F=E-TS. E is the sum of the following terms:
     one-electron contribution =    -223.79173791 Ry
     hartree contribution      =     127.75507215 Ry
     xc contribution           =     -46.41973356 Ry
     ewald contribution        =    -201.55192731 Ry

     convergence has been achieved in   3 iterations

     Forces acting on atoms (cartesian axes, Ry/au):

     atom    1 type  1   force =     0.00000000    0.00000000    0.00000000
     atom    2 type  2   force =     0.00000000    0.00000000    0.00000000

     Total force =     0.000000     Total SCF correction =     0.000000


     Computing stress (Cartesian axis) and pressure

          total   stress  (Ry/bohr**3)                   (kbar)     P=      481.33
   0.00489603   0.00000000   0.00000000          720.23        0.00        0.00
   0.00000000   0.00489603   0.00000000            0.00      720.23        0.00
   0.00000000   0.00000000   0.00002408            0.00        0.00        3.54

     Energy error            =      7.3E-06 Ry
     Gradient error          =      0.0E+00 Ry/Bohr
     Cell gradient error     =      3.5E+00 kbar

     number of scf cycles    =   2
     number of bfgs steps    =   1

     enthalpy           old  =    -344.0091855278 Ry
     enthalpy           new  =    -344.0091928229 Ry

     CASE: enthalpy          _new < enthalpy          _old

     new trust radius        =       0.0027333728 bohr
     new conv_thr            =       0.0000000100 Ry

     new unit-cell volume =    132.13069 a.u.^3 (    19.57975 Ang^3 )
     density =      7.35963 g/cm^3

CELL_PARAMETERS (alat=  5.38176635)
   0.800000000   0.000000000   0.000000000
   0.000000000   0.800000000   0.000000000
   0.000000000   0.000000000   1.324491619

ATOMIC_POSITIONS (crystal)
Si               0.0000000000        0.0000000000        0.0000000000
Ni               0.5000000000        0.5000000000        0.5000000000



     Writing config-only to output data dir ./tmp/SiNi-vc-relax.save/ :
     XML data file
     NEW-OLD atomic charge density approx. for the potential
     New effective cutoffs (rho, wfc):  399.01   99.99

     total cpu time spent up to now is       20.3 secs

     Self-consistent Calculation

     iteration #  1     ecut=   100.00 Ry     beta= 0.70
     Davidson diagonalization with overlap
     ethr =  1.00E-06,  avg # of iterations =  2.7

     Threshold (ethr) on eigenvalues was too large:
     Diagonalizing with lowered threshold

     Davidson diagonalization with overlap
     ethr =  1.97E-09,  avg # of iterations =  3.8

     total cpu time spent up to now is       23.4 secs

     total energy              =    -344.00919487 Ry
     estimated scf accuracy    <       0.00000083 Ry

     iteration #  2     ecut=   100.00 Ry     beta= 0.70
     Davidson diagonalization with overlap
     ethr =  3.78E-09,  avg # of iterations =  2.3

     total cpu time spent up to now is       24.9 secs

     total energy              =    -344.00919437 Ry
     estimated scf accuracy    <       0.00000560 Ry

     iteration #  3     ecut=   100.00 Ry     beta= 0.70
     Davidson diagonalization with overlap
     ethr =  3.78E-09,  avg # of iterations =  2.1

     total cpu time spent up to now is       26.2 secs

     total energy              =    -344.00919520 Ry
     estimated scf accuracy    <       0.00000017 Ry

     iteration #  4     ecut=   100.00 Ry     beta= 0.70
     Davidson diagonalization with overlap
     ethr =  7.69E-10,  avg # of iterations =  1.3

     total cpu time spent up to now is       27.4 secs

     End of self-consistent calculation

          k = 0.0000 0.0000 0.0000 (  2239 PWs)   bands (ev):

   -84.3140 -44.8047 -44.5234 -44.5234   3.8090  13.6780  13.9245  15.0154
    17.8141  17.8141  18.7791  20.5750  27.9860  30.0299  30.0299

          k = 0.0000 0.0000 0.1258 (  2231 PWs)   bands (ev):

   -84.3140 -44.8050 -44.5234 -44.5234   4.0384  11.8053  15.0308  15.0862
    17.7926  17.7926  18.7796  21.7503  27.8807  30.3076  30.3076

          k = 0.0000 0.0000 0.2517 (  2222 PWs)   bands (ev):

   -84.3140 -44.8055 -44.5234 -44.5234   4.6164   9.9236  15.0619  15.5796
    17.7501  17.7501  18.7807  24.5026  27.6756  30.9966  30.9966

          k = 0.0000 0.0000-0.3775 (  2230 PWs)   bands (ev):

   -84.3140 -44.8058 -44.5234 -44.5234   5.0167   9.0578  15.0776  15.7008
    17.7291  17.7291  18.7813  26.7064  27.5757  30.9184  31.4677

          k = 0.0000 0.2083 0.0000 (  2216 PWs)   bands (ev):

   -84.3049 -44.7966 -44.5998 -44.5170   4.5919  13.9755  14.2499  15.2716
    17.8805  18.1735  18.4415  20.7921  23.0089  30.7472  32.3025

          k = 0.0000 0.2083 0.1258 (  2214 PWs)   bands (ev):

   -84.3049 -44.7968 -44.5998 -44.5170   4.8099  12.3937  15.1506  15.3384
    17.7275  17.8607  18.4427  22.2916  23.1896  30.9953  31.7720

          k = 0.0000 0.2083 0.2517 (  2216 PWs)   bands (ev):

   -84.3049 -44.7973 -44.5997 -44.5170   5.3525  10.6754  15.3157  15.7767
    17.1867  17.8216  18.4450  23.5595  25.3332  30.7497  31.5930

          k = 0.0000 0.2083-0.3775 (  2224 PWs)   bands (ev):

   -84.3049 -44.7976 -44.5997 -44.5170   5.7194   9.8771  15.3439  16.0060
    16.9256  17.8024  18.4461  23.7670  27.7568  30.2677  31.2392

          k = 0.0000 0.4167 0.0000 (  2222 PWs)   bands (ev):

   -84.2866 -44.7803 -44.7513 -44.5042   6.8791  13.9537  14.4882  15.1809
    17.8227  18.0147  19.3077  19.6160  21.5906  27.6918  31.0465

          k = 0.0000 0.4167 0.1258 (  2220 PWs)   bands (ev):

   -84.2866 -44.7805 -44.7513 -44.5042   7.0610  13.4731  14.5942  15.3363
    17.8241  17.9986  18.0512  19.5999  23.6247  26.6569  32.5924

          k = 0.0000 0.4167 0.2517 (  2221 PWs)   bands (ev):

   -84.2866 -44.7809 -44.7513 -44.5042   7.4935  12.6076  14.6167  15.5897
    16.9611  17.8269  17.9665  19.7408  24.8595  27.4337  33.3332

          k = 0.0000 0.4167-0.3775 (  2216 PWs)   bands (ev):

   -84.2866 -44.7811 -44.7512 -44.5042   7.7635  12.1323  14.6036  15.6890
    16.6595  17.8284  17.9505  19.8298  24.4215  30.2914  32.0246

          k = 0.0000-0.6250 0.0000 (  2238 PWs)   bands (ev):

   -84.2775 -44.8265 -44.7721 -44.4978  10.2573  10.7063  13.8929  15.5129
    17.5362  18.0827  19.4334  21.6081  22.7873  24.1884  28.0866

          k = 0.0000-0.6250 0.1258 (  2232 PWs)   bands (ev):

   -84.2775 -44.8265 -44.7723 -44.4978  10.4994  10.6336  14.1491  15.4492
    17.5375  18.0682  18.4366  21.0842  21.7668  26.3282  29.5509

          k = 0.0000-0.6250 0.2517 (  2226 PWs)   bands (ev):

   -84.2775 -44.8264 -44.7727 -44.4978  10.5044  11.1185  14.7488  15.1261
    17.0288  17.5402  18.0395  19.3739  21.8752  29.4024  32.9156

          k = 0.0000-0.6250-0.3775 (  2228 PWs)   bands (ev):

   -84.2774 -44.8264 -44.7728 -44.4978  10.4461  11.5625  14.7100  15.1403
    16.5678  17.5415  18.0253  18.6198  21.9008  32.6519  32.8113

          k = 0.2083 0.2083 0.0000 (  2206 PWs)   bands (ev):

   -84.2958 -44.7885 -44.5950 -44.5905   5.3642  14.1354  14.7584  15.5695
    17.2629  18.0356  19.1287  21.1592  22.3579  26.2270  34.1253

          k = 0.2083 0.2083 0.1258 (  2216 PWs)   bands (ev):

   -84.2958 -44.7888 -44.5949 -44.5905   5.5709  12.9262  15.4285  15.6038
    17.1548  18.0075  18.4041  22.5834  22.9175  26.4107  32.8961

          k = 0.2083 0.2083 0.2517 (  2224 PWs)   bands (ev):

   -84.2958 -44.7892 -44.5949 -44.5905   6.0794  11.3871  15.6838  15.9710
    16.9397  17.6132  18.0989  23.0600  25.6524  27.3116  31.2969

          k = 0.2083 0.2083-0.3775 (  2230 PWs)   bands (ev):

   -84.2958 -44.7895 -44.5949 -44.5905   6.4155  10.6594  15.7321  16.2179
    16.8291  17.3312  18.0875  23.3185  26.3807  30.1026  31.1672

          k = 0.2083 0.4167 0.0000 (  2234 PWs)   bands (ev):

   -84.2777 -44.7725 -44.7430 -44.5786   7.6166  14.2858  14.7865  15.7739
    17.0753  17.4601  19.4011  20.7838  22.3611  26.9476  28.2452

          k = 0.2083 0.4167 0.1258 (  2231 PWs)   bands (ev):

   -84.2777 -44.7727 -44.7430 -44.5786   7.7871  13.9025  14.8236  15.9318
    16.9488  17.5436  19.0200  19.8317  24.4851  27.0731  27.1814

          k = 0.2083 0.4167 0.2517 (  2222 PWs)   bands (ev):

   -84.2777 -44.7731 -44.7429 -44.5786   8.1883  13.1472  14.8793  16.1424
    16.7238  17.6673  18.0088  20.0064  25.5755  26.6180  28.6745

          k = 0.2083 0.4167-0.3775 (  2222 PWs)   bands (ev):

   -84.2777 -44.7733 -44.7429 -44.5785   8.4344  12.7331  14.8986  16.2104
    16.6471  17.5707  17.8180  20.1773  24.9952  26.8883  32.3865

          k = 0.2083-0.6250 0.0000 (  2232 PWs)   bands (ev):

   -84.2686 -44.8175 -44.7645 -44.5715  10.9875  11.2675  14.2636  16.1859
    16.8285  17.1678  19.4140  23.1629  24.0440  24.3035  28.3013

          k = 0.2083-0.6250 0.1258 (  2226 PWs)   bands (ev):

   -84.2686 -44.8175 -44.7646 -44.5715  11.2031  11.2168  14.3688  16.1535
    17.0037  17.0762  18.9806  21.9505  22.5915  26.5117  29.7941

          k = 0.2083-0.6250 0.2517 (  2224 PWs)   bands (ev):

   -84.2686 -44.8174 -44.7650 -44.5715  11.1219  11.7330  14.5743  15.9291
    16.8813  17.5594  18.1454  20.0697  22.1065  28.2836  30.4760

          k = 0.2083-0.6250-0.3775 (  2220 PWs)   bands (ev):

   -84.2685 -44.8174 -44.7652 -44.5715  11.0773  12.0838  14.6745  15.6357
    16.8084  17.8108  18.3958  18.7720  21.9929  28.8416  30.6213

          k = 0.4167 0.4167 0.0000 (  2230 PWs)   bands (ev):

   -84.2597 -44.7569 -44.7284 -44.7240   9.7380  14.8449  14.9448  16.1564
    16.4575  17.5045  19.2185  22.6837  23.0224  24.5519  28.9819

          k = 0.4167 0.4167 0.1258 (  2232 PWs)   bands (ev):

   -84.2597 -44.7571 -44.7284 -44.7240   9.8703  14.4199  15.4040  15.5536
    17.0606  17.6078  19.4925  20.8834  22.9592  26.3259  28.6425

          k = 0.4167 0.4167 0.2517 (  2227 PWs)   bands (ev):

   -84.2597 -44.7574 -44.7284 -44.7240  10.1695  13.9556  15.0560  16.1118
    17.4872  17.7635  18.9815  20.2633  22.5447  26.4346  27.8433

          k = 0.4167 0.4167-0.3775 (  2220 PWs)   bands (ev):

   -84.2597 -44.7576 -44.7284 -44.7240  10.3432  13.7325  14.8812  16.9056
    17.3982  17.6036  18.2163  20.8175  22.3313  25.4321  28.3610

          k = 0.4167-0.6250 0.0000 (  2230 PWs)   bands (ev):

   -84.2507 -44.7995 -44.7491 -44.7179  12.5992  13.0680  15.1123  16.0215
    16.0395  17.3961  19.3298  24.4811  24.5490  24.6868  26.3682

          k = 0.4167-0.6250 0.1258 (  2234 PWs)   bands (ev):

   -84.2507 -44.7995 -44.7493 -44.7178  12.6355  13.1416  14.6012  16.1135
    16.8305  17.5390  19.2772  23.4523  23.8608  24.3512  25.2275

          k = 0.4167-0.6250 0.2517 (  2228 PWs)   bands (ev):

   -84.2507 -44.7994 -44.7496 -44.7178  12.6984  13.2601  14.1372  16.5610
    17.7626  18.1457  18.8197  21.6616  22.5858  24.0260  24.6541

          k = 0.4167-0.6250-0.3775 (  2248 PWs)   bands (ev):

   -84.2507 -44.7994 -44.7498 -44.7178  12.7223  13.3030  13.9914  17.2590
    17.8834  17.9876  19.1985  20.4543  22.2520  23.8497  24.4301

          k =-0.6250-0.6250 0.0000 (  2252 PWs)   bands (ev):

   -84.2418 -44.7904 -44.7904 -44.7414  13.3251  15.6092  15.6092  15.9107
    16.0810  16.0810  19.5491  22.3704  22.3970  25.0894  29.4855

          k =-0.6250-0.6250 0.1258 (  2244 PWs)   bands (ev):

   -84.2418 -44.7904 -44.7904 -44.7416  13.4127  14.7872  14.7872  16.1845
    17.2646  17.2646  19.5492  21.8357  21.8654  25.3935  26.6819

          k =-0.6250-0.6250 0.2517 (  2240 PWs)   bands (ev):

   -84.2418 -44.7904 -44.7904 -44.7419  13.6016  14.1627  14.1627  16.9189
    18.9212  18.9212  19.5493  20.6097  21.0187  24.0678  24.0678

          k =-0.6250-0.6250-0.3775 (  2208 PWs)   bands (ev):

   -84.2418 -44.7904 -44.7904 -44.7420  13.7042  13.9507  13.9507  17.5266
    19.5494  19.7703  20.1613  20.1613  20.6479  22.5128  22.5128

     the Fermi energy is    19.5198 ev

!    total energy              =    -344.00919522 Ry
     estimated scf accuracy    <          2.8E-09 Ry
     smearing contrib. (-TS)   =      -0.00088127 Ry
     internal energy E=F+TS    =    -344.00831396 Ry

     The total energy is F=E-TS. E is the sum of the following terms:
     one-electron contribution =    -224.02966768 Ry
     hartree contribution      =     127.85522357 Ry
     xc contribution           =     -46.41799622 Ry
     ewald contribution        =    -201.41587362 Ry

     convergence has been achieved in   4 iterations

     Forces acting on atoms (cartesian axes, Ry/au):

     atom    1 type  1   force =     0.00000000    0.00000000    0.00000000
     atom    2 type  2   force =     0.00000000    0.00000000    0.00000000

     Total force =     0.000000     Total SCF correction =     0.000000


     Computing stress (Cartesian axis) and pressure

          total   stress  (Ry/bohr**3)                   (kbar)     P=      479.28
   0.00488673   0.00000000   0.00000000          718.86        0.00        0.00
   0.00000000   0.00488673   0.00000000            0.00      718.86        0.00
   0.00000000   0.00000000   0.00000077            0.00        0.00        0.11

     Energy error            =      2.4E-06 Ry
     Gradient error          =      0.0E+00 Ry/Bohr
     Cell gradient error     =      1.1E-01 kbar

     bfgs converged in   3 scf cycles and   2 bfgs steps
     (criteria: energy <  1.0E-04 Ry, force <  1.0E-03 Ry/Bohr, cell <  5.0E-01 kbar)

     End of BFGS Geometry Optimization

     Final enthalpy           =    -344.0091952206 Ry

     File ./tmp/SiNi-vc-relax.bfgs deleted, as requested
Begin final coordinates
     new unit-cell volume =    132.13069 a.u.^3 (    19.57975 Ang^3 )
     density =      7.35963 g/cm^3

CELL_PARAMETERS (alat=  5.38176635)
   0.800000000   0.000000000   0.000000000
   0.000000000   0.800000000   0.000000000
   0.000000000   0.000000000   1.324491619

ATOMIC_POSITIONS (crystal)
Si               0.0000000000        0.0000000000        0.0000000000
Ni               0.5000000000        0.5000000000        0.5000000000
End final coordinates



     Writing config-only to output data dir ./tmp/SiNi-vc-relax.save/ :
     XML data file

     Final scf calculation at the relaxed structure.
     The G-vectors are recalculated for the final unit cell
     Results may differ from those at the preceding step.

     G-vector sticks info
     --------------------
     sticks:   dense  smooth     PW     G-vecs:    dense   smooth      PW
     Sum         593     593    185                17893    17893    3073

     Using Slab Decomposition



     bravais-lattice index     =            0
     lattice parameter (alat)  =       5.3818  a.u.
     unit-cell volume          =     132.1307 (a.u.)^3
     number of atoms/cell      =            2
     number of atomic types    =            2
     number of electrons       =        22.00
     number of Kohn-Sham states=           15
     kinetic-energy cutoff     =     100.0000  Ry
     charge density cutoff     =     400.0000  Ry
     scf convergence threshold =      1.0E-08
     mixing beta               =       0.7000
     number of iterations used =            8  plain     mixing
     press convergence thresh. =      5.0E-01
     Exchange-correlation= PBE
                           (   1   4   3   4   0   0   0)

     celldm(1)=   5.381766  celldm(2)=   0.000000  celldm(3)=   0.000000
     celldm(4)=   0.000000  celldm(5)=   0.000000  celldm(6)=   0.000000

     crystal axes: (cart. coord. in units of alat)
               a(1) = (   0.800000   0.000000   0.000000 )  
               a(2) = (   0.000000   0.800000   0.000000 )  
               a(3) = (   0.000000   0.000000   1.324492 )  

     reciprocal axes: (cart. coord. in units 2 pi/alat)
               b(1) = (  1.250000  0.000000  0.000000 )  
               b(2) = (  0.000000  1.250000  0.000000 )  
               b(3) = (  0.000000  0.000000  0.755007 )  


     PseudoPot. # 1 for Si read from file:
     ./PSEUDO/Si.upf
     MD5 check sum: 02fab3f35e82123ef5bf1cb05d5b1a5e
     Pseudo is Norm-conserving + core correction, Zval =  4.0
     Generated using ONCVPSP code by D. R. Hamann
     Using radial grid of 1510 points,  6 beta functions with: 
                l(1) =   0
                l(2) =   0
                l(3) =   1
                l(4) =   1
                l(5) =   2
                l(6) =   2

     PseudoPot. # 2 for Ni read from file:
     ./PSEUDO/Ni.upf
     MD5 check sum: 2b0a79d100e227970886d6963e34175b
     Pseudo is Norm-conserving + core correction, Zval = 18.0
     Generated using ONCVPSP code by D. R. Hamann
     Using radial grid of 1372 points,  6 beta functions with: 
                l(1) =   0
                l(2) =   0
                l(3) =   1
                l(4) =   1
                l(5) =   2
                l(6) =   2

     atomic species   valence    mass     pseudopotential
     Si                4.00    28.08550     Si( 1.00)
     Ni               18.00    58.69340     Ni( 1.00)

     16 Sym. Ops., with inversion, found



   Cartesian axes

     site n.     atom                  positions (alat units)
         1        Si     tau(   1) = (   0.0000000   0.0000000   0.0000000  )
         2        Ni     tau(   2) = (   0.4000000   0.4000000   0.6622458  )

     number of k points=    40  Methfessel-Paxton smearing, width (Ry)=  0.0400
                       cart. coord. in units 2pi/alat
        k(    1) = (   0.0000000   0.0000000   0.0000000), wk =   0.0092593
        k(    2) = (   0.0000000   0.0000000   0.1258344), wk =   0.0185185
        k(    3) = (   0.0000000   0.0000000   0.2516689), wk =   0.0185185
        k(    4) = (   0.0000000   0.0000000  -0.3775033), wk =   0.0092593
        k(    5) = (   0.0000000   0.2083333   0.0000000), wk =   0.0370370
        k(    6) = (   0.0000000   0.2083333   0.1258344), wk =   0.0740741
        k(    7) = (   0.0000000   0.2083333   0.2516689), wk =   0.0740741
        k(    8) = (   0.0000000   0.2083333  -0.3775033), wk =   0.0370370
        k(    9) = (   0.0000000   0.4166667   0.0000000), wk =   0.0370370
        k(   10) = (   0.0000000   0.4166667   0.1258344), wk =   0.0740741
        k(   11) = (   0.0000000   0.4166667   0.2516689), wk =   0.0740741
        k(   12) = (   0.0000000   0.4166667  -0.3775033), wk =   0.0370370
        k(   13) = (   0.0000000  -0.6250000   0.0000000), wk =   0.0185185
        k(   14) = (   0.0000000  -0.6250000   0.1258344), wk =   0.0370370
        k(   15) = (   0.0000000  -0.6250000   0.2516689), wk =   0.0370370
        k(   16) = (   0.0000000  -0.6250000  -0.3775033), wk =   0.0185185
        k(   17) = (   0.2083333   0.2083333   0.0000000), wk =   0.0370370
        k(   18) = (   0.2083333   0.2083333   0.1258344), wk =   0.0740741
        k(   19) = (   0.2083333   0.2083333   0.2516689), wk =   0.0740741
        k(   20) = (   0.2083333   0.2083333  -0.3775033), wk =   0.0370370
        k(   21) = (   0.2083333   0.4166667   0.0000000), wk =   0.0740741
        k(   22) = (   0.2083333   0.4166667   0.1258344), wk =   0.1481481
        k(   23) = (   0.2083333   0.4166667   0.2516689), wk =   0.1481481
        k(   24) = (   0.2083333   0.4166667  -0.3775033), wk =   0.0740741
        k(   25) = (   0.2083333  -0.6250000   0.0000000), wk =   0.0370370
        k(   26) = (   0.2083333  -0.6250000   0.1258344), wk =   0.0740741
        k(   27) = (   0.2083333  -0.6250000   0.2516689), wk =   0.0740741
        k(   28) = (   0.2083333  -0.6250000  -0.3775033), wk =   0.0370370
        k(   29) = (   0.4166667   0.4166667   0.0000000), wk =   0.0370370
        k(   30) = (   0.4166667   0.4166667   0.1258344), wk =   0.0740741
        k(   31) = (   0.4166667   0.4166667   0.2516689), wk =   0.0740741
        k(   32) = (   0.4166667   0.4166667  -0.3775033), wk =   0.0370370
        k(   33) = (   0.4166667  -0.6250000   0.0000000), wk =   0.0370370
        k(   34) = (   0.4166667  -0.6250000   0.1258344), wk =   0.0740741
        k(   35) = (   0.4166667  -0.6250000   0.2516689), wk =   0.0740741
        k(   36) = (   0.4166667  -0.6250000  -0.3775033), wk =   0.0370370
        k(   37) = (  -0.6250000  -0.6250000   0.0000000), wk =   0.0092593
        k(   38) = (  -0.6250000  -0.6250000   0.1258344), wk =   0.0185185
        k(   39) = (  -0.6250000  -0.6250000   0.2516689), wk =   0.0185185
        k(   40) = (  -0.6250000  -0.6250000  -0.3775033), wk =   0.0092593

     Dense  grid:    17893 G-vectors     FFT dimensions: (  27,  27,  45)

     Estimated max dynamical RAM per process >      41.19 MB

     Initial potential from superposition of free atoms

     starting charge      21.9992, renormalised to      22.0000
     Starting wfcs are   14 randomized atomic wfcs +    1 random wfcs

     total cpu time spent up to now is       29.0 secs

     Self-consistent Calculation

     iteration #  1     ecut=   100.00 Ry     beta= 0.70
     Davidson diagonalization with overlap
     c_bands:  1 eigenvalues not converged
     ethr =  1.00E-06,  avg # of iterations = 12.6

     total cpu time spent up to now is       32.8 secs

     total energy              =    -343.90860710 Ry
     estimated scf accuracy    <       0.15521584 Ry

     iteration #  2     ecut=   100.00 Ry     beta= 0.70
     Davidson diagonalization with overlap
     ethr =  7.06E-04,  avg # of iterations =  2.7

     total cpu time spent up to now is       34.4 secs

     total energy              =    -343.73070490 Ry
     estimated scf accuracy    <       2.25430281 Ry

     iteration #  3     ecut=   100.00 Ry     beta= 0.70
     Davidson diagonalization with overlap
     ethr =  7.06E-04,  avg # of iterations =  2.4

     total cpu time spent up to now is       35.9 secs

     total energy              =    -344.00863087 Ry
     estimated scf accuracy    <       0.00345472 Ry

     iteration #  4     ecut=   100.00 Ry     beta= 0.70
     Davidson diagonalization with overlap
     ethr =  1.57E-05,  avg # of iterations =  2.5

     total cpu time spent up to now is       37.2 secs

     total energy              =    -344.00916258 Ry
     estimated scf accuracy    <       0.00023283 Ry

     iteration #  5     ecut=   100.00 Ry     beta= 0.70
     Davidson diagonalization with overlap
     ethr =  1.06E-06,  avg # of iterations =  2.2

     total cpu time spent up to now is       38.5 secs

     total energy              =    -344.00919409 Ry
     estimated scf accuracy    <       0.00000497 Ry

     iteration #  6     ecut=   100.00 Ry     beta= 0.70
     Davidson diagonalization with overlap
     ethr =  2.26E-08,  avg # of iterations =  2.7

     total cpu time spent up to now is       39.9 secs

     total energy              =    -344.00919524 Ry
     estimated scf accuracy    <       0.00000101 Ry

     iteration #  7     ecut=   100.00 Ry     beta= 0.70
     Davidson diagonalization with overlap
     ethr =  4.60E-09,  avg # of iterations =  1.3

     total cpu time spent up to now is       41.1 secs

     total energy              =    -344.00919535 Ry
     estimated scf accuracy    <       0.00000004 Ry

     iteration #  8     ecut=   100.00 Ry     beta= 0.70
     Davidson diagonalization with overlap
     ethr =  1.60E-10,  avg # of iterations =  2.5

     total cpu time spent up to now is       42.5 secs

     End of self-consistent calculation

          k = 0.0000 0.0000 0.0000 (  2255 PWs)   bands (ev):

   -84.3141 -44.8047 -44.5234 -44.5234   3.8091  13.6780  13.9245  15.0153
    17.8141  17.8141  18.7790  20.5750  27.9862  30.0300  30.0300

          k = 0.0000 0.0000 0.1258 (  2235 PWs)   bands (ev):

   -84.3141 -44.8050 -44.5234 -44.5234   4.0385  11.8053  15.0307  15.0862
    17.7925  17.7925  18.7796  21.7503  27.8809  30.3077  30.3077

          k = 0.0000 0.0000 0.2517 (  2223 PWs)   bands (ev):

   -84.3140 -44.8055 -44.5234 -44.5234   4.6164   9.9236  15.0618  15.5795
    17.7500  17.7500  18.7807  24.5026  27.6758  30.9967  30.9967

          k = 0.0000 0.0000-0.3775 (  2230 PWs)   bands (ev):

   -84.3140 -44.8058 -44.5234 -44.5234   5.0168   9.0577  15.0774  15.7007
    17.7291  17.7291  18.7812  26.7064  27.5758  30.9184  31.4678

          k = 0.0000 0.2083 0.0000 (  2226 PWs)   bands (ev):

   -84.3049 -44.7966 -44.5998 -44.5170   4.5920  13.9755  14.2499  15.2715
    17.8804  18.1734  18.4415  20.7921  23.0090  30.7473  32.3026

          k = 0.0000 0.2083 0.1258 (  2221 PWs)   bands (ev):

   -84.3049 -44.7968 -44.5998 -44.5170   4.8100  12.3936  15.1505  15.3383
    17.7275  17.8606  18.4427  22.2916  23.1897  30.9954  31.7720

          k = 0.0000 0.2083 0.2517 (  2225 PWs)   bands (ev):

   -84.3049 -44.7973 -44.5998 -44.5170   5.3526  10.6754  15.3156  15.7766
    17.1867  17.8216  18.4450  23.5596  25.3332  30.7497  31.5931

          k = 0.0000 0.2083-0.3775 (  2236 PWs)   bands (ev):

   -84.3049 -44.7976 -44.5998 -44.5170   5.7195   9.8771  15.3438  16.0060
    16.9256  17.8023  18.4461  23.7671  27.7568  30.2677  31.2392

          k = 0.0000 0.4167 0.0000 (  2236 PWs)   bands (ev):

   -84.2867 -44.7803 -44.7514 -44.5042   6.8792  13.9536  14.4882  15.1809
    17.8227  18.0147  19.3077  19.6160  21.5906  27.6919  31.0465

          k = 0.0000 0.4167 0.1258 (  2226 PWs)   bands (ev):

   -84.2866 -44.7805 -44.7514 -44.5042   7.0611  13.4731  14.5942  15.3362
    17.8240  17.9986  18.0511  19.5999  23.6247  26.6568  32.5924

          k = 0.0000 0.4167 0.2517 (  2226 PWs)   bands (ev):

   -84.2866 -44.7809 -44.7513 -44.5042   7.4936  12.6076  14.6168  15.5896
    16.9610  17.8268  17.9665  19.7408  24.8595  27.4337  33.3334

          k = 0.0000 0.4167-0.3775 (  2216 PWs)   bands (ev):

   -84.2866 -44.7811 -44.7513 -44.5042   7.7636  12.1323  14.6037  15.6889
    16.6595  17.8284  17.9504  19.8299  24.4214  30.2914  32.0246

          k = 0.0000-0.6250 0.0000 (  2238 PWs)   bands (ev):

   -84.2775 -44.8266 -44.7722 -44.4978  10.2574  10.7063  13.8928  15.5128
    17.5361  18.0826  19.4334  21.6081  22.7873  24.1884  28.0865

          k = 0.0000-0.6250 0.1258 (  2244 PWs)   bands (ev):

   -84.2775 -44.8265 -44.7723 -44.4978  10.4995  10.6336  14.1491  15.4491
    17.5375  18.0682  18.4366  21.0842  21.7668  26.3282  29.5509

          k = 0.0000-0.6250 0.2517 (  2230 PWs)   bands (ev):

   -84.2775 -44.8264 -44.7727 -44.4978  10.5045  11.1186  14.7487  15.1260
    17.0288  17.5401  18.0395  19.3739  21.8752  29.4024  32.9156

          k = 0.0000-0.6250-0.3775 (  2228 PWs)   bands (ev):

   -84.2775 -44.8264 -44.7729 -44.4978  10.4462  11.5627  14.7099  15.1402
    16.5678  17.5414  18.0252  18.6198  21.9007  32.6519  32.8113

          k = 0.2083 0.2083 0.0000 (  2212 PWs)   bands (ev):

   -84.2959 -44.7886 -44.5950 -44.5905   5.3642  14.1354  14.7584  15.5694
    17.2628  18.0356  19.1286  21.1592  22.3580  26.2270  34.1253

          k = 0.2083 0.2083 0.1258 (  2221 PWs)   bands (ev):

   -84.2959 -44.7888 -44.5950 -44.5905   5.5710  12.9261  15.4285  15.6037
    17.1547  18.0074  18.4041  22.5835  22.9175  26.4108  32.8961

          k = 0.2083 0.2083 0.2517 (  2229 PWs)   bands (ev):

   -84.2959 -44.7893 -44.5950 -44.5905   6.0795  11.3871  15.6837  15.9709
    16.9397  17.6131  18.0988  23.0601  25.6524  27.3116  31.2969

          k = 0.2083 0.2083-0.3775 (  2232 PWs)   bands (ev):

   -84.2959 -44.7895 -44.5949 -44.5905   6.4156  10.6594  15.7320  16.2178
    16.8290  17.3312  18.0875  23.3187  26.3808  30.1026  30.6611

          k = 0.2083 0.4167 0.0000 (  2240 PWs)   bands (ev):

   -84.2777 -44.7725 -44.7431 -44.5786   7.6167  14.2857  14.7865  15.7738
    17.0753  17.4601  19.4011  20.7838  22.3611  26.9477  28.2452

          k = 0.2083 0.4167 0.1258 (  2233 PWs)   bands (ev):

   -84.2777 -44.7727 -44.7430 -44.5786   7.7872  13.9025  14.8236  15.9317
    16.9488  17.5435  19.0200  19.8318  24.4851  27.0732  27.1814

          k = 0.2083 0.4167 0.2517 (  2226 PWs)   bands (ev):

   -84.2777 -44.7731 -44.7430 -44.5786   8.1884  13.1472  14.8793  16.1423
    16.7238  17.6673  18.0088  20.0064  25.5754  26.6181  28.6746

          k = 0.2083 0.4167-0.3775 (  2222 PWs)   bands (ev):

   -84.2777 -44.7733 -44.7430 -44.5786   8.4345  12.7331  14.8987  16.2103
    16.6470  17.5706  17.8180  20.1773  24.9951  26.8884  31.8857

          k = 0.2083-0.6250 0.0000 (  2232 PWs)   bands (ev):

   -84.2686 -44.8176 -44.7645 -44.5716  10.9875  11.2676  14.2636  16.1858
    16.8284  17.1678  19.4139  23.1629  24.0440  24.3035  28.3013

          k = 0.2083-0.6250 0.1258 (  2228 PWs)   bands (ev):

   -84.2686 -44.8175 -44.7647 -44.5716  11.2032  11.2168  14.3687  16.1534
    17.0037  17.0761  18.9806  21.9505  22.5915  26.5117  29.7941

          k = 0.2083-0.6250 0.2517 (  2226 PWs)   bands (ev):

   -84.2686 -44.8175 -44.7650 -44.5716  11.1219  11.7331  14.5743  15.9290
    16.8813  17.5593  18.1453  20.0697  22.1065  28.2837  30.4762

          k = 0.2083-0.6250-0.3775 (  2220 PWs)   bands (ev):

   -84.2686 -44.8174 -44.7652 -44.5716  11.0773  12.0839  14.6744  15.6356
    16.8084  17.8108  18.3957  18.7720  21.9929  28.8416  30.6214

          k = 0.4167 0.4167 0.0000 (  2234 PWs)   bands (ev):

   -84.2597 -44.7569 -44.7285 -44.7241   9.7381  14.8448  14.9447  16.1564
    16.4575  17.5044  19.2185  22.6837  23.0225  24.5519  28.9820

          k = 0.4167 0.4167 0.1258 (  2242 PWs)   bands (ev):

   -84.2597 -44.7571 -44.7285 -44.7241   9.8703  14.4199  15.4040  15.5536
    17.0606  17.6077  19.4926  20.8834  22.9593  26.3260  28.6425

          k = 0.4167 0.4167 0.2517 (  2233 PWs)   bands (ev):

   -84.2597 -44.7574 -44.7284 -44.7241  10.1696  13.9555  15.0560  16.1117
    17.4871  17.7634  18.9815  20.2633  22.5448  26.4346  27.8435

          k = 0.4167 0.4167-0.3775 (  2240 PWs)   bands (ev):

   -84.2597 -44.7576 -44.7284 -44.7241  10.3433  13.7324  14.8812  16.9056
    17.3982  17.6035  18.2162  20.8175  22.3314  25.4320  28.3610

          k = 0.4167-0.6250 0.0000 (  2238 PWs)   bands (ev):

   -84.2508 -44.7995 -44.7491 -44.7179  12.5992  13.0681  15.1122  16.0215
    16.0395  17.3961  19.3297  24.4811  24.5491  24.6868  26.3682

          k = 0.4167-0.6250 0.1258 (  2238 PWs)   bands (ev):

   -84.2508 -44.7995 -44.7493 -44.7179  12.6355  13.1417  14.6011  16.1135
    16.8305  17.5389  19.2771  23.4523  23.8609  24.3512  25.2275

          k = 0.4167-0.6250 0.2517 (  2236 PWs)   bands (ev):

   -84.2507 -44.7995 -44.7496 -44.7179  12.6984  13.2601  14.1372  16.5610
    17.7625  18.1457  18.8196  21.6615  22.5858  24.0261  24.6542

          k = 0.4167-0.6250-0.3775 (  2256 PWs)   bands (ev):

   -84.2507 -44.7995 -44.7498 -44.7179  12.7224  13.3030  13.9913  17.2589
    17.8834  17.9875  19.1985  20.4543  22.2519  23.8497  24.4303

          k =-0.6250-0.6250 0.0000 (  2252 PWs)   bands (ev):

   -84.2418 -44.7905 -44.7905 -44.7414  13.3251  15.6092  15.6092  15.9107
    16.0811  16.0811  19.5490  22.3704  22.3970  25.0894  29.4854

          k =-0.6250-0.6250 0.1258 (  2248 PWs)   bands (ev):

   -84.2418 -44.7905 -44.7905 -44.7416  13.4126  14.7873  14.7873  16.1845
    17.2646  17.2646  19.5491  21.8357  21.8654  25.3935  26.6819

          k =-0.6250-0.6250 0.2517 (  2240 PWs)   bands (ev):

   -84.2418 -44.7905 -44.7905 -44.7419  13.6015  14.1627  14.1627  16.9189
    18.9213  18.9213  19.5492  20.6098  21.0188  24.0678  24.0678

          k =-0.6250-0.6250-0.3775 (  2224 PWs)   bands (ev):

   -84.2418 -44.7905 -44.7905 -44.7421  13.7041  13.9507  13.9507  17.5265
    19.5493  19.7704  20.1613  20.1613  20.6480  22.5128  22.5128

     the Fermi energy is    19.5198 ev

!    total energy              =    -344.00919535 Ry
     estimated scf accuracy    <          1.3E-09 Ry
     smearing contrib. (-TS)   =      -0.00088102 Ry
     internal energy E=F+TS    =    -344.00831434 Ry

     The total energy is F=E-TS. E is the sum of the following terms:
     one-electron contribution =    -224.03024563 Ry
     hartree contribution      =     127.85584244 Ry
     xc contribution           =     -46.41803752 Ry
     ewald contribution        =    -201.41587362 Ry

     convergence has been achieved in   8 iterations

     Forces acting on atoms (cartesian axes, Ry/au):

     atom    1 type  1   force =     0.00000000    0.00000000    0.00000000
     atom    2 type  2   force =     0.00000000    0.00000000    0.00000000

     Total force =     0.000000     Total SCF correction =     0.000000


     Computing stress (Cartesian axis) and pressure

          total   stress  (Ry/bohr**3)                   (kbar)     P=      479.42
   0.00488747   0.00000000   0.00000000          718.97        0.00        0.00
   0.00000000   0.00488747   0.00000000            0.00      718.97        0.00
   0.00000000   0.00000000   0.00000218            0.00        0.00        0.32


     Writing all to output data dir ./tmp/SiNi-vc-relax.save/ :
     XML data file, charge density, pseudopotentials, collected wavefunctions

     init_run     :      2.11s CPU      2.25s WALL (       2 calls)
     electrons    :     35.89s CPU     37.04s WALL (       4 calls)
     update_pot   :      0.02s CPU      0.02s WALL (       2 calls)
     forces       :      0.85s CPU      0.86s WALL (       4 calls)
     stress       :      3.24s CPU      3.29s WALL (       4 calls)

     Called by init_run:
     wfcinit      :      1.27s CPU      1.40s WALL (       2 calls)
     potinit      :      0.20s CPU      0.20s WALL (       2 calls)
     hinit0       :      0.61s CPU      0.61s WALL (       2 calls)

     Called by electrons:
     c_bands      :     32.01s CPU     32.99s WALL (      25 calls)
     sum_band     :      3.68s CPU      3.82s WALL (      25 calls)
     v_of_rho     :      0.21s CPU      0.22s WALL (      26 calls)
     mix_rho      :      0.02s CPU      0.03s WALL (      25 calls)

     Called by c_bands:
     init_us_2    :      1.01s CPU      1.08s WALL (    2400 calls)
     cegterg      :     30.38s CPU     31.32s WALL (    1000 calls)

     Called by *egterg:
     cdiaghg      :      0.50s CPU      0.53s WALL (    3647 calls)
     h_psi        :     23.18s CPU     24.04s WALL (    3927 calls)
     g_psi        :      0.16s CPU      0.17s WALL (    2847 calls)

     Called by h_psi:
     h_psi:calbec :      2.87s CPU      2.94s WALL (    3927 calls)
     vloc_psi     :     17.46s CPU     18.20s WALL (    3927 calls)
                                        0.00s GPU  (    3927 calls)
     add_vuspsi   :      2.70s CPU      2.76s WALL (    3927 calls)

     General routines
     calbec       :      5.62s CPU      5.75s WALL (    6647 calls)
     fft          :      0.11s CPU      0.11s WALL (     361 calls)
     ffts         :      0.01s CPU      0.01s WALL (      25 calls)
     fftw         :     18.28s CPU     19.36s WALL (   96428 calls)


     PWSCF        :     42.21s CPU     43.59s WALL


   This run was terminated on:  19:55:48   8Jan2026            

=------------------------------------------------------------------------------=
   JOB DONE.
=------------------------------------------------------------------------------=
