
     Program PWSCF v.7.5 starts on  7Jan2026 at 21:29:17 

     This program is part of the open-source Quantum ESPRESSO suite
     for quantum simulation of materials; please cite
         "P. Giannozzi et al., J. Phys.:Condens. Matter 21 395502 (2009);
         "P. Giannozzi et al., J. Phys.:Condens. Matter 29 465901 (2017);
         "P. Giannozzi et al., J. Chem. Phys. 152 154105 (2020);
          URL http://www.quantum-espresso.org", 
     in publications or presentations arising from this work. More details at
     http://www.quantum-espresso.org/quote

     Serial version
     1181 MiB available memory on the printing compute node when the environment starts

     Waiting for input...
     Reading input from standard input

     Current dimensions of program PWSCF are:
     Max number of different atomic species (ntypx) = 10
     Max number of k-points (npk) =  40000
     Max angular momentum in pseudopotentials (lmaxx) =  4
     Message from routine setup:
     using ibrav=0 with symmetry is DISCOURAGED, use correct ibrav instead


     G-vector sticks info
     --------------------
     sticks:   dense  smooth     PW     G-vecs:    dense   smooth      PW
     Sum         869     869    249                23725    23725    3711

     Using Slab Decomposition



     bravais-lattice index     =            0
     lattice parameter (alat)  =       5.3733  a.u.
     unit-cell volume          =     151.8673 (a.u.)^3
     number of atoms/cell      =            2
     number of atomic types    =            2
     number of electrons       =        22.00
     number of Kohn-Sham states=           15
     kinetic-energy cutoff     =     110.0000  Ry
     charge density cutoff     =     440.0000  Ry
     scf convergence threshold =      1.0E-06
     mixing beta               =       0.7000
     number of iterations used =            8  plain     mixing
     energy convergence thresh.=      1.0E-04
     force convergence thresh. =      1.0E-03
     press convergence thresh. =      5.0E-01
     Exchange-correlation= PBE
                           (   1   4   3   4   0   0   0)
     nstep                     =           50


     celldm(1)=   5.373304  celldm(2)=   0.000000  celldm(3)=   0.000000
     celldm(4)=   0.000000  celldm(5)=   0.000000  celldm(6)=   0.000000

     crystal axes: (cart. coord. in units of alat)
               a(1) = (   0.925000   0.000000   0.000000 )  
               a(2) = (   0.000000   0.925000   0.000000 )  
               a(3) = (   0.000000   0.000000   1.144081 )  

     reciprocal axes: (cart. coord. in units 2 pi/alat)
               b(1) = (  1.081081  0.000000  0.000000 )  
               b(2) = (  0.000000  1.081081  0.000000 )  
               b(3) = (  0.000000  0.000000  0.874064 )  


     PseudoPot. # 1 for Si read from file:
     ./PSEUDO/Si.upf
     MD5 check sum: 02fab3f35e82123ef5bf1cb05d5b1a5e
     Pseudo is Norm-conserving + core correction, Zval =  4.0
     Generated using ONCVPSP code by D. R. Hamann
     Using radial grid of 1510 points,  6 beta functions with: 
                l(1) =   0
                l(2) =   0
                l(3) =   1
                l(4) =   1
                l(5) =   2
                l(6) =   2

     PseudoPot. # 2 for Ni read from file:
     ./PSEUDO/Ni.upf
     MD5 check sum: 2b0a79d100e227970886d6963e34175b
     Pseudo is Norm-conserving + core correction, Zval = 18.0
     Generated using ONCVPSP code by D. R. Hamann
     Using radial grid of 1372 points,  6 beta functions with: 
                l(1) =   0
                l(2) =   0
                l(3) =   1
                l(4) =   1
                l(5) =   2
                l(6) =   2

     atomic species   valence    mass     pseudopotential
     Si                4.00    28.08550     Si( 1.00)
     Ni               18.00    58.69340     Ni( 1.00)

     16 Sym. Ops., with inversion, found



   Cartesian axes

     site n.     atom                  positions (alat units)
         1        Si     tau(   1) = (   0.0000000   0.0000000   0.0000000  )
         2        Ni     tau(   2) = (   0.4625000   0.4625000   0.5720405  )

     number of k points=    40  Methfessel-Paxton smearing, width (Ry)=  0.0400
                       cart. coord. in units 2pi/alat
        k(    1) = (   0.0000000   0.0000000   0.0000000), wk =   0.0058309
        k(    2) = (   0.0000000   0.0000000   0.1248663), wk =   0.0116618
        k(    3) = (   0.0000000   0.0000000   0.2497326), wk =   0.0116618
        k(    4) = (   0.0000000   0.0000000   0.3745989), wk =   0.0116618
        k(    5) = (   0.0000000   0.1544402   0.0000000), wk =   0.0233236
        k(    6) = (   0.0000000   0.1544402   0.1248663), wk =   0.0466472
        k(    7) = (   0.0000000   0.1544402   0.2497326), wk =   0.0466472
        k(    8) = (   0.0000000   0.1544402   0.3745989), wk =   0.0466472
        k(    9) = (   0.0000000   0.3088803   0.0000000), wk =   0.0233236
        k(   10) = (   0.0000000   0.3088803   0.1248663), wk =   0.0466472
        k(   11) = (   0.0000000   0.3088803   0.2497326), wk =   0.0466472
        k(   12) = (   0.0000000   0.3088803   0.3745989), wk =   0.0466472
        k(   13) = (   0.0000000   0.4633205   0.0000000), wk =   0.0233236
        k(   14) = (   0.0000000   0.4633205   0.1248663), wk =   0.0466472
        k(   15) = (   0.0000000   0.4633205   0.2497326), wk =   0.0466472
        k(   16) = (   0.0000000   0.4633205   0.3745989), wk =   0.0466472
        k(   17) = (   0.1544402   0.1544402   0.0000000), wk =   0.0233236
        k(   18) = (   0.1544402   0.1544402   0.1248663), wk =   0.0466472
        k(   19) = (   0.1544402   0.1544402   0.2497326), wk =   0.0466472
        k(   20) = (   0.1544402   0.1544402   0.3745989), wk =   0.0466472
        k(   21) = (   0.1544402   0.3088803   0.0000000), wk =   0.0466472
        k(   22) = (   0.1544402   0.3088803   0.1248663), wk =   0.0932945
        k(   23) = (   0.1544402   0.3088803   0.2497326), wk =   0.0932945
        k(   24) = (   0.1544402   0.3088803   0.3745989), wk =   0.0932945
        k(   25) = (   0.1544402   0.4633205   0.0000000), wk =   0.0466472
        k(   26) = (   0.1544402   0.4633205   0.1248663), wk =   0.0932945
        k(   27) = (   0.1544402   0.4633205   0.2497326), wk =   0.0932945
        k(   28) = (   0.1544402   0.4633205   0.3745989), wk =   0.0932945
        k(   29) = (   0.3088803   0.3088803   0.0000000), wk =   0.0233236
        k(   30) = (   0.3088803   0.3088803   0.1248663), wk =   0.0466472
        k(   31) = (   0.3088803   0.3088803   0.2497326), wk =   0.0466472
        k(   32) = (   0.3088803   0.3088803   0.3745989), wk =   0.0466472
        k(   33) = (   0.3088803   0.4633205   0.0000000), wk =   0.0466472
        k(   34) = (   0.3088803   0.4633205   0.1248663), wk =   0.0932945
        k(   35) = (   0.3088803   0.4633205   0.2497326), wk =   0.0932945
        k(   36) = (   0.3088803   0.4633205   0.3745989), wk =   0.0932945
        k(   37) = (   0.4633205   0.4633205   0.0000000), wk =   0.0233236
        k(   38) = (   0.4633205   0.4633205   0.1248663), wk =   0.0466472
        k(   39) = (   0.4633205   0.4633205   0.2497326), wk =   0.0466472
        k(   40) = (   0.4633205   0.4633205   0.3745989), wk =   0.0466472

     Dense  grid:    23725 G-vectors     FFT dimensions: (  36,  36,  45)

     Estimated max dynamical RAM per process >      53.48 MB

     Initial potential from superposition of free atoms

     starting charge      21.9992, renormalised to      22.0000
     Starting wfcs are   14 randomized atomic wfcs +    1 random wfcs

     total cpu time spent up to now is        2.0 secs

     Self-consistent Calculation

     iteration #  1     ecut=   110.00 Ry     beta= 0.70
     Davidson diagonalization with overlap
     ethr =  1.00E-02,  avg # of iterations =  4.2

     Threshold (ethr) on eigenvalues was too large:
     Diagonalizing with lowered threshold

     Davidson diagonalization with overlap
     ethr =  9.47E-04,  avg # of iterations =  1.0

     total cpu time spent up to now is        5.5 secs

     total energy              =    -343.95497498 Ry
     estimated scf accuracy    <       0.20251611 Ry

     iteration #  2     ecut=   110.00 Ry     beta= 0.70
     Davidson diagonalization with overlap
     ethr =  9.21E-04,  avg # of iterations =  3.1

     total cpu time spent up to now is        7.5 secs

     total energy              =    -343.71986109 Ry
     estimated scf accuracy    <       2.89137226 Ry

     iteration #  3     ecut=   110.00 Ry     beta= 0.70
     Davidson diagonalization with overlap
     ethr =  9.21E-04,  avg # of iterations =  2.5

     total cpu time spent up to now is        9.5 secs

     total energy              =    -344.08363435 Ry
     estimated scf accuracy    <       0.00593963 Ry

     iteration #  4     ecut=   110.00 Ry     beta= 0.70
     Davidson diagonalization with overlap
     ethr =  2.70E-05,  avg # of iterations =  2.5

     total cpu time spent up to now is       11.4 secs

     total energy              =    -344.08443393 Ry
     estimated scf accuracy    <       0.00071117 Ry

     iteration #  5     ecut=   110.00 Ry     beta= 0.70
     Davidson diagonalization with overlap
     ethr =  3.23E-06,  avg # of iterations =  2.0

     total cpu time spent up to now is       13.0 secs

     total energy              =    -344.08448421 Ry
     estimated scf accuracy    <       0.00005920 Ry

     iteration #  6     ecut=   110.00 Ry     beta= 0.70
     Davidson diagonalization with overlap
     ethr =  2.69E-07,  avg # of iterations =  2.0

     total cpu time spent up to now is       14.7 secs

     total energy              =    -344.08449697 Ry
     estimated scf accuracy    <       0.00000982 Ry

     iteration #  7     ecut=   110.00 Ry     beta= 0.70
     Davidson diagonalization with overlap
     ethr =  4.46E-08,  avg # of iterations =  1.4

     total cpu time spent up to now is       16.2 secs

     End of self-consistent calculation

          k = 0.0000 0.0000 0.0000 (  2985 PWs)   bands (ev):

   -87.1280 -47.5841 -47.4580 -47.4580   2.6071  12.4314  12.8632  14.5718
    14.5718  15.1225  15.3090  21.3155  21.9689  21.9689  24.1922

          k = 0.0000 0.0000 0.1249 (  2977 PWs)   bands (ev):

   -87.1280 -47.5852 -47.4579 -47.4579   2.8768  11.6972  12.9119  14.4828
    14.4828  14.7746  15.1277  22.3425  22.3425  23.0022  24.0843

          k = 0.0000 0.0000 0.2497 (  2968 PWs)   bands (ev):

   -87.1279 -47.5875 -47.4578 -47.4578   3.6462   9.8004  13.0245  14.2969
    14.2969  14.5008  15.1394  23.3486  23.3486  23.8326  26.1062

          k = 0.0000 0.0000 0.3746 (  2952 PWs)   bands (ev):

   -87.1278 -47.5894 -47.4577 -47.4577   4.6644   8.0006  13.1184  14.1598
    14.1598  14.5107  15.1487  23.6221  24.5945  24.5945  28.2721

          k = 0.0000 0.1544 0.0000 (  2969 PWs)   bands (ev):

   -87.1270 -47.5830 -47.4704 -47.4570   3.0432  12.5751  12.8487  13.7722
    14.6050  14.9303  16.4550  18.8777  21.4242  22.4847  26.0356

          k = 0.0000 0.1544 0.1249 (  2972 PWs)   bands (ev):

   -87.1270 -47.5840 -47.4703 -47.4569   3.3073  11.9098  12.8881  13.7526
    14.5203  14.9425  15.6551  19.1695  22.8296  23.2156  26.0049

          k = 0.0000 0.1544 0.2497 (  2962 PWs)   bands (ev):

   -87.1269 -47.5863 -47.4702 -47.4568   4.0579  10.1375  13.0435  13.7904
    14.3462  14.8938  14.9644  19.8926  23.7518  25.3876  26.6594

          k = 0.0000 0.1544 0.3746 (  2967 PWs)   bands (ev):

   -87.1268 -47.5882 -47.4700 -47.4567   5.0358   8.4268  13.2056  13.7937
    14.2181  14.5961  14.9800  20.6429  24.8445  24.8638  26.3230

          k = 0.0000 0.3089 0.0000 (  2951 PWs)   bands (ev):

   -87.1247 -47.5804 -47.4983 -47.4547   4.3272  11.7792  13.0249  13.0430
    14.5457  14.6802  16.3610  18.2864  21.7239  23.8787  26.9909

          k = 0.0000 0.3089 0.1249 (  2943 PWs)   bands (ev):

   -87.1247 -47.5814 -47.4982 -47.4546   4.5728  11.8879  12.3266  13.3420
    14.5459  14.6279  16.3309  17.1324  23.5927  24.1457  25.1811

          k = 0.0000 0.3089 0.2497 (  2956 PWs)   bands (ev):

   -87.1246 -47.5836 -47.4980 -47.4545   5.2596  10.9863  12.2323  13.4513
    14.4537  14.6092  15.3081  17.2886  22.5464  24.8257  26.7281

          k = 0.0000 0.3089 0.3746 (  2965 PWs)   bands (ev):

   -87.1245 -47.5854 -47.4978 -47.4544   6.1068   9.6342  12.5675  13.3972
    14.3512  14.6286  14.7460  17.9453  20.9311  25.5194  27.5671

          k = 0.0000 0.4633 0.0000 (  2950 PWs)   bands (ev):

   -87.1229 -47.5783 -47.5206 -47.4529   6.3576   9.1911  12.6322  13.3296
    14.2723  14.7414  16.0441  20.6066  22.1198  23.4889  25.8513

          k = 0.0000 0.4633 0.1249 (  2960 PWs)   bands (ev):

   -87.1229 -47.5792 -47.5205 -47.4528   6.5571   9.3867  12.4887  13.3399
    14.2906  14.6842  15.9499  18.7646  21.4187  24.8657  25.9645

          k = 0.0000 0.4633 0.2497 (  2960 PWs)   bands (ev):

   -87.1228 -47.5814 -47.5202 -47.4527   7.0805   9.9321  12.0680  13.2766
    14.3324  14.5597  15.4771  17.2592  19.3756  26.1867  27.5640

          k = 0.0000 0.4633 0.3746 (  2963 PWs)   bands (ev):

   -87.1227 -47.5831 -47.5200 -47.4526   7.6245  10.6595  11.4466  13.0096
    14.3676  14.4625  14.8758  16.8781  18.1487  26.3359  29.1306

          k = 0.1544 0.1544 0.0000 (  2952 PWs)   bands (ev):

   -87.1260 -47.5818 -47.4696 -47.4691   3.4746  12.7013  12.8912  13.6078
    14.3597  14.7015  17.2363  18.7010  20.0940  21.6283  28.9961

          k = 0.1544 0.1544 0.1249 (  2963 PWs)   bands (ev):

   -87.1260 -47.5828 -47.4695 -47.4690   3.7332  12.0915  12.9456  13.6500
    14.2172  14.7180  16.2551  19.0049  20.3519  23.5739  28.5685

          k = 0.1544 0.1544 0.2497 (  2957 PWs)   bands (ev):

   -87.1259 -47.5851 -47.4694 -47.4689   4.4650  10.4560  13.0931  13.8674
    13.9075  14.7476  15.2774  19.7456  21.0324  26.8306  26.9143

          k = 0.1544 0.1544 0.3746 (  2961 PWs)   bands (ev):

   -87.1258 -47.5869 -47.4692 -47.4688   5.4045   8.8379  13.2963  13.6006
    14.1698  14.6899  14.8249  20.4863  21.8465  25.3839  25.5326

          k = 0.1544 0.3089 0.0000 (  2954 PWs)   bands (ev):

   -87.1237 -47.5792 -47.4971 -47.4670   4.7430  12.0019  13.1157  13.1172
    14.3433  14.3567  16.4976  18.8702  20.7433  22.1566  27.2583

          k = 0.1544 0.3089 0.1249 (  2958 PWs)   bands (ev):

   -87.1237 -47.5802 -47.4970 -47.4669   4.9831  12.1030  12.4453  13.4503
    14.2024  14.4060  16.6512  17.4839  20.9656  24.2717  25.4405

          k = 0.1544 0.3089 0.2497 (  2953 PWs)   bands (ev):

   -87.1236 -47.5824 -47.4968 -47.4667   5.6518  11.2432  12.3358  13.6302
    14.0566  14.4592  15.7727  17.4331  21.4969  23.0148  27.5161

          k = 0.1544 0.3089 0.3746 (  2957 PWs)   bands (ev):

   -87.1235 -47.5842 -47.4966 -47.4666   6.4672   9.9795  12.5243  13.5828
    14.3013  14.4968  14.9292  18.1168  21.3455  22.0680  26.7472

          k = 0.1544 0.4633 0.0000 (  2959 PWs)   bands (ev):

   -87.1219 -47.5771 -47.5193 -47.4651   6.7355   9.5496  12.7731  13.4800
    14.0615  14.4281  16.0236  21.0298  21.9391  23.4106  23.8760

          k = 0.1544 0.4633 0.1249 (  2964 PWs)   bands (ev):

   -87.1219 -47.5781 -47.5192 -47.4650   6.9300   9.7374  12.5410  13.5426
    14.1754  14.3552  15.9990  19.1477  21.9092  22.5063  25.2584

          k = 0.1544 0.4633 0.2497 (  2963 PWs)   bands (ev):

   -87.1218 -47.5802 -47.5190 -47.4648   7.4411  10.2450  12.0394  13.5044
    14.2339  14.4734  15.7602  17.3979  19.7348  22.8349  26.4860

          k = 0.1544 0.4633 0.3746 (  2966 PWs)   bands (ev):

   -87.1217 -47.5819 -47.5188 -47.4647   7.9761  10.8494  11.4846  13.2284
    14.4568  14.6781  15.0669  16.8629  18.3430  23.2026  27.1571

          k = 0.3089 0.3089 0.0000 (  2958 PWs)   bands (ev):

   -87.1215 -47.5766 -47.4949 -47.4940   5.9573  12.3460  12.7799  13.2422
    13.8778  14.2018  16.3531  18.5701  20.1822  22.8231  25.4855

          k = 0.3089 0.3089 0.1249 (  2953 PWs)   bands (ev):

   -87.1214 -47.5776 -47.4948 -47.4940   6.1790  12.3041  12.6174  13.1851
    13.9544  14.2507  16.6918  18.5092  18.5789  24.3740  25.9317

          k = 0.3089 0.3089 0.2497 (  2968 PWs)   bands (ev):

   -87.1213 -47.5797 -47.4946 -47.4938   6.7877  11.6991  12.3375  13.5273
    14.0623  14.3449  16.6213  17.5995  18.5792  23.9243  24.2427

          k = 0.3089 0.3089 0.3746 (  2961 PWs)   bands (ev):

   -87.1213 -47.5814 -47.4944 -47.4937   7.5008  10.8087  12.1589  14.1207
    14.2237  14.4789  15.3223  18.5565  18.7454  21.9146  23.1578

          k = 0.3089 0.4633 0.0000 (  2968 PWs)   bands (ev):

   -87.1196 -47.5746 -47.5164 -47.4923   7.8093  10.5474  13.1109  13.2112
    13.8511  13.9981  15.9057  19.2861  21.7146  21.8886  24.6544

          k = 0.3089 0.4633 0.1249 (  2955 PWs)   bands (ev):

   -87.1196 -47.5755 -47.5163 -47.4922   7.9891  10.6852  12.4853  13.6195
    13.9958  14.1845  15.9950  19.2068  20.0809  22.0737  23.2297

          k = 0.3089 0.4633 0.2497 (  2945 PWs)   bands (ev):

   -87.1195 -47.5776 -47.5161 -47.4921   8.4623  10.9748  11.9014  13.7887
    14.2000  14.7867  16.1851  17.7943  19.2650  20.9207  22.5925

          k = 0.3089 0.4633 0.3746 (  2951 PWs)   bands (ev):

   -87.1195 -47.5793 -47.5159 -47.4919   8.9645  11.1569  11.4653  14.1316
    14.5957  15.2159  15.8445  16.7020  18.7581  19.9695  23.1104

          k = 0.4633 0.4633 0.0000 (  2976 PWs)   bands (ev):

   -87.1178 -47.5725 -47.5142 -47.5141   9.2617  11.6593  12.3814  13.3865
    13.4894  13.6969  15.7314  17.9560  19.4884  22.1283  26.4130

          k = 0.4633 0.4633 0.1249 (  2960 PWs)   bands (ev):

   -87.1178 -47.5734 -47.5141 -47.5140   9.4290  11.6257  11.9464  13.2882
    14.1408  14.2734  15.7969  17.6572  19.4214  21.2595  24.4750

          k = 0.4633 0.4633 0.2497 (  2949 PWs)   bands (ev):

   -87.1177 -47.5755 -47.5139 -47.5138   9.8568  11.4398  11.4664  13.8348
    15.0394  15.1045  16.2554  16.8131  18.8477  20.2775  22.1011

          k = 0.4633 0.4633 0.3746 (  2949 PWs)   bands (ev):

   -87.1176 -47.5771 -47.5138 -47.5136  10.2696  11.1682  11.3451  14.7543
    15.3281  15.6510  16.2439  17.4281  17.6629  19.6851  20.1124

     the Fermi energy is    16.7241 ev

!    total energy              =    -344.08449717 Ry
     estimated scf accuracy    <       0.00000071 Ry
     smearing contrib. (-TS)   =       0.00061169 Ry
     internal energy E=F+TS    =    -344.08510886 Ry

     The total energy is F=E-TS. E is the sum of the following terms:
     one-electron contribution =    -221.31811212 Ry
     hartree contribution      =     124.20325114 Ry
     xc contribution           =     -46.17064865 Ry
     ewald contribution        =    -200.79959922 Ry

     convergence has been achieved in   7 iterations

     Forces acting on atoms (cartesian axes, Ry/au):

     atom    1 type  1   force =     0.00000000    0.00000000    0.00000000
     atom    2 type  2   force =     0.00000000    0.00000000    0.00000000

     Total force =     0.000000     Total SCF correction =     0.000000


     Computing stress (Cartesian axis) and pressure

          total   stress  (Ry/bohr**3)                   (kbar)     P=       16.24
   0.00016059   0.00000000   0.00000000           23.62        0.00        0.00
   0.00000000   0.00016059   0.00000000            0.00       23.62        0.00
   0.00000000   0.00000000   0.00001009            0.00        0.00        1.48


     BFGS Geometry Optimization
     Energy error            =      3.9E-07 Ry
     Gradient error          =      0.0E+00 Ry/Bohr
     Cell gradient error     =      1.5E+00 kbar

     number of scf cycles    =   1
     number of bfgs steps    =   0

     enthalpy           new  =    -344.0844971665 Ry

     new trust radius        =       0.0006219327 bohr
     new conv_thr            =       0.0000010000 Ry

     new unit-cell volume =    151.90566 a.u.^3 (    22.51010 Ang^3 )
     density =      6.40156 g/cm^3

CELL_PARAMETERS (alat=  5.37330365)
   0.925000000   0.000000000   0.000000000
   0.000000000   0.925000000   0.000000000
   0.000000000   0.000000000   1.144369635

ATOMIC_POSITIONS (crystal)
Si               0.0000000000        0.0000000000        0.0000000000
Ni               0.5000000000        0.5000000000        0.5000000000



     Writing config-only to output data dir ./tmp/SiNi-relax.save/ :
     XML data file
     NEW-OLD atomic charge density approx. for the potential
     New effective cutoffs (rho, wfc):  439.60  110.00

     total cpu time spent up to now is       17.6 secs

     Self-consistent Calculation

     iteration #  1     ecut=   110.00 Ry     beta= 0.70
     Davidson diagonalization with overlap
     ethr =  1.00E-06,  avg # of iterations =  2.0

     Threshold (ethr) on eigenvalues was too large:
     Diagonalizing with lowered threshold

     Davidson diagonalization with overlap
     ethr =  8.38E-08,  avg # of iterations =  1.8

     total cpu time spent up to now is       20.7 secs

     total energy              =    -344.08448477 Ry
     estimated scf accuracy    <       0.00002185 Ry

     iteration #  2     ecut=   110.00 Ry     beta= 0.70
     Davidson diagonalization with overlap
     ethr =  9.93E-08,  avg # of iterations =  2.9

     total cpu time spent up to now is       22.7 secs

     total energy              =    -344.08446869 Ry
     estimated scf accuracy    <       0.00025408 Ry

     iteration #  3     ecut=   110.00 Ry     beta= 0.70
     Davidson diagonalization with overlap
     ethr =  9.93E-08,  avg # of iterations =  2.2

     total cpu time spent up to now is       24.6 secs

     End of self-consistent calculation

          k = 0.0000 0.0000 0.0000 (  2985 PWs)   bands (ev):

   -87.1353 -47.5907 -47.4651 -47.4651   2.6043  12.4262  12.8579  14.5659
    14.5659  15.1163  15.3003  21.3052  21.9661  21.9661  24.1872

          k = 0.0000 0.0000 0.1248 (  2977 PWs)   bands (ev):

   -87.1352 -47.5918 -47.4651 -47.4651   2.8738  11.6917  12.9064  14.4770
    14.4770  14.7668  15.1214  22.3393  22.3393  22.9912  24.0794

          k = 0.0000 0.0000 0.2497 (  2968 PWs)   bands (ev):

   -87.1351 -47.5941 -47.4649 -47.4649   3.6427   9.7953  13.0188  14.2915
    14.2915  14.4938  15.1331  23.3446  23.3446  23.8282  26.0956

          k = 0.0000 0.0000 0.3745 (  2952 PWs)   bands (ev):

   -87.1351 -47.5960 -47.4648 -47.4648   4.6600   7.9965  13.1125  14.1546
    14.1546  14.5037  15.1424  23.6180  24.5892  24.5892  28.2681

          k = 0.0000 0.1544 0.0000 (  2969 PWs)   bands (ev):

   -87.1343 -47.5896 -47.4776 -47.4641   3.0404  12.5701  12.8435  13.7658
    14.5991  14.9243  16.4468  18.8735  21.4140  22.4817  26.0309

          k = 0.0000 0.1544 0.1248 (  2972 PWs)   bands (ev):

   -87.1342 -47.5906 -47.4775 -47.4641   3.3043  11.9044  12.8829  13.7466
    14.5145  14.9364  15.6476  19.1651  22.8263  23.2049  26.0001

          k = 0.0000 0.1544 0.2497 (  2962 PWs)   bands (ev):

   -87.1341 -47.5929 -47.4773 -47.4639   4.0544  10.1324  13.0380  13.7849
    14.3408  14.8870  14.9583  19.8875  23.7477  25.3827  26.6496

          k = 0.0000 0.1544 0.3745 (  2967 PWs)   bands (ev):

   -87.1341 -47.5948 -47.4772 -47.4638   5.0314   8.4227  13.1997  13.7887
    14.2129  14.5892  14.9738  20.6372  24.8392  24.8595  26.3178

          k = 0.0000 0.3089 0.0000 (  2951 PWs)   bands (ev):

   -87.1320 -47.5870 -47.5054 -47.4619   4.3244  11.7758  13.0187  13.0376
    14.5399  14.6743  16.3551  18.2779  21.7145  23.8753  26.9821

          k = 0.0000 0.3089 0.1248 (  2943 PWs)   bands (ev):

   -87.1319 -47.5880 -47.5053 -47.4618   4.5698  11.8842  12.3212  13.3361
    14.5401  14.6220  16.3246  17.1249  23.5840  24.1420  25.1725

          k = 0.0000 0.3089 0.2497 (  2956 PWs)   bands (ev):

   -87.1319 -47.5902 -47.5051 -47.4617   5.2561  10.9813  12.2285  13.4455
    14.4482  14.6033  15.3012  17.2821  22.5402  24.8214  26.7205

          k = 0.0000 0.3089 0.3745 (  2965 PWs)   bands (ev):

   -87.1318 -47.5920 -47.5050 -47.4616   6.1025   9.6302  12.5633  13.3915
    14.3459  14.6226  14.7391  17.9383  20.9259  25.5144  27.5617

          k = 0.0000 0.4633 0.0000 (  2950 PWs)   bands (ev):

   -87.1301 -47.5849 -47.5277 -47.4601   6.3548   9.1882  12.6262  13.3240
    14.2666  14.7354  16.0377  20.5979  22.1120  23.4801  25.8474

          k = 0.0000 0.4633 0.1248 (  2960 PWs)   bands (ev):

   -87.1301 -47.5858 -47.5276 -47.4600   6.5541   9.3836  12.4831  13.3343
    14.2849  14.6783  15.9435  18.7566  21.4110  24.8570  25.9604

          k = 0.0000 0.4633 0.2497 (  2960 PWs)   bands (ev):

   -87.1300 -47.5880 -47.5274 -47.4598   7.0771   9.9285  12.0634  13.2709
    14.3266  14.5540  15.4703  17.2518  19.3688  26.1824  27.5568

          k = 0.0000 0.4633 0.3745 (  2963 PWs)   bands (ev):

   -87.1300 -47.5897 -47.5272 -47.4597   7.6205  10.6554  11.4427  13.0045
    14.3617  14.4571  14.8689  16.8705  18.1426  26.3315  29.1246

          k = 0.1544 0.1544 0.0000 (  2952 PWs)   bands (ev):

   -87.1332 -47.5884 -47.4768 -47.4762   3.4718  12.6964  12.8862  13.6014
    14.3538  14.6956  17.2280  18.6965  20.0901  21.6181  28.9924

          k = 0.1544 0.1544 0.1248 (  2963 PWs)   bands (ev):

   -87.1332 -47.5894 -47.4767 -47.4762   3.7302  12.0862  12.9406  13.6441
    14.2115  14.7121  16.2475  19.0002  20.3478  23.5629  28.5639

          k = 0.1544 0.1544 0.2497 (  2957 PWs)   bands (ev):

   -87.1331 -47.5917 -47.4765 -47.4760   4.4615  10.4510  13.0879  13.8617
    13.9021  14.7416  15.2705  19.7403  21.0277  26.8253  26.9044

          k = 0.1544 0.1544 0.3745 (  2961 PWs)   bands (ev):

   -87.1330 -47.5935 -47.4764 -47.4759   5.4002   8.8339  13.2907  13.5956
    14.1643  14.6833  14.8186  20.4804  21.8410  25.3793  25.5278

          k = 0.1544 0.3089 0.0000 (  2954 PWs)   bands (ev):

   -87.1310 -47.5858 -47.5043 -47.4741   4.7401  11.9984  13.1106  13.1110
    14.3373  14.3511  16.4917  18.8617  20.7390  22.1470  27.2497

          k = 0.1544 0.3089 0.1248 (  2958 PWs)   bands (ev):

   -87.1309 -47.5868 -47.5042 -47.4740   4.9801  12.0993  12.4399  13.4446
    14.1967  14.4003  16.6452  17.4760  20.9612  24.2616  25.4325

          k = 0.1544 0.3089 0.2497 (  2953 PWs)   bands (ev):

   -87.1308 -47.5890 -47.5040 -47.4739   5.6484  11.2384  12.3319  13.6244
    14.0511  14.4534  15.7657  17.4267  21.4920  23.0085  27.5068

          k = 0.1544 0.3089 0.3745 (  2957 PWs)   bands (ev):

   -87.1308 -47.5908 -47.5038 -47.4738   6.4629   9.9756  12.5202  13.5771
    14.2957  14.4910  14.9225  18.1100  21.3402  22.0626  26.7423

          k = 0.1544 0.4633 0.0000 (  2959 PWs)   bands (ev):

   -87.1291 -47.5837 -47.5265 -47.4722   6.7327   9.5467  12.7671  13.4746
    14.0561  14.4221  16.0172  21.0211  21.9339  23.4032  23.8672

          k = 0.1544 0.4633 0.1248 (  2964 PWs)   bands (ev):

   -87.1291 -47.5847 -47.5263 -47.4721   6.9270   9.7343  12.5355  13.5371
    14.1698  14.3494  15.9926  19.1398  21.9018  22.5014  25.2512

          k = 0.1544 0.4633 0.2497 (  2963 PWs)   bands (ev):

   -87.1290 -47.5868 -47.5261 -47.4720   7.4377  10.2414  12.0348  13.4988
    14.2283  14.4676  15.7536  17.3905  19.7280  22.8302  26.4812

          k = 0.1544 0.4633 0.3745 (  2966 PWs)   bands (ev):

   -87.1290 -47.5885 -47.5259 -47.4719   7.9721  10.8454  11.4808  13.2231
    14.4510  14.6723  15.0603  16.8554  18.3371  23.1975  27.1519

          k = 0.3089 0.3089 0.0000 (  2958 PWs)   bands (ev):

   -87.1287 -47.5832 -47.5020 -47.5012   5.9545  12.3420  12.7761  13.2361
    13.8720  14.1965  16.3473  18.5647  20.1736  22.8143  25.4803

          k = 0.3089 0.3089 0.1248 (  2953 PWs)   bands (ev):

   -87.1287 -47.5842 -47.5019 -47.5011   6.1761  12.2998  12.6135  13.1795
    13.9486  14.2453  16.6859  18.5013  18.5732  24.3671  25.9244

          k = 0.3089 0.3089 0.2497 (  2968 PWs)   bands (ev):

   -87.1286 -47.5863 -47.5017 -47.5009   6.7843  11.6945  12.3336  13.5221
    14.0565  14.3393  16.6141  17.5933  18.5737  23.9179  24.2364

          k = 0.3089 0.3089 0.3745 (  2961 PWs)   bands (ev):

   -87.1285 -47.5880 -47.5015 -47.5008   7.4967  10.8048  12.1550  14.1148
    14.2182  14.4730  15.3157  18.5510  18.7386  21.9093  23.1525

          k = 0.3089 0.4633 0.0000 (  2968 PWs)   bands (ev):

   -87.1269 -47.5812 -47.5236 -47.4995   7.8065  10.5444  13.1050  13.2068
    13.8453  13.9930  15.8993  19.2807  21.7062  21.8842  24.6453

          k = 0.3089 0.4633 0.1248 (  2955 PWs)   bands (ev):

   -87.1269 -47.5821 -47.5235 -47.4994   7.9862  10.6820  12.4805  13.6141
    13.9902  14.1792  15.9885  19.2011  20.0734  22.0692  23.2216

          k = 0.3089 0.4633 0.2497 (  2945 PWs)   bands (ev):

   -87.1268 -47.5842 -47.5233 -47.4992   8.4590  10.9713  11.8969  13.7833
    14.1944  14.7810  16.1786  17.7876  19.2595  20.9139  22.5874

          k = 0.3089 0.4633 0.3745 (  2951 PWs)   bands (ev):

   -87.1267 -47.5859 -47.5231 -47.4991   8.9606  11.1531  11.4614  14.1261
    14.5896  15.2101  15.8385  16.6954  18.7528  19.9633  23.1048

          k = 0.4633 0.4633 0.0000 (  2976 PWs)   bands (ev):

   -87.1251 -47.5791 -47.5214 -47.5212   9.2590  11.6558  12.3784  13.3806
    13.4836  13.6926  15.7248  17.9493  19.4835  22.1203  26.4035

          k = 0.4633 0.4633 0.1248 (  2960 PWs)   bands (ev):

   -87.1251 -47.5800 -47.5213 -47.5211   9.4261  11.6221  11.9430  13.2831
    14.1355  14.2683  15.7904  17.6506  19.4164  21.2523  24.4668

          k = 0.4633 0.4633 0.2497 (  2949 PWs)   bands (ev):

   -87.1250 -47.5821 -47.5211 -47.5209   9.8536  11.4362  11.4624  13.8296
    15.0337  15.0989  16.2493  16.8072  18.8424  20.2711  22.0941

          k = 0.4633 0.4633 0.3745 (  2949 PWs)   bands (ev):

   -87.1249 -47.5837 -47.5209 -47.5208  10.2659  11.1646  11.3411  14.7480
    15.3218  15.6451  16.2391  17.4229  17.6567  19.6790  20.1062

     the Fermi energy is    16.7174 ev

!    total energy              =    -344.08449985 Ry
     estimated scf accuracy    <       0.00000003 Ry
     smearing contrib. (-TS)   =       0.00060736 Ry
     internal energy E=F+TS    =    -344.08510721 Ry

     The total energy is F=E-TS. E is the sum of the following terms:
     one-electron contribution =    -221.36436896 Ry
     hartree contribution      =     124.22952204 Ry
     xc contribution           =     -46.17152782 Ry
     ewald contribution        =    -200.77873246 Ry

     convergence has been achieved in   3 iterations

     Forces acting on atoms (cartesian axes, Ry/au):

     atom    1 type  1   force =     0.00000000    0.00000000    0.00000000
     atom    2 type  2   force =     0.00000000    0.00000000    0.00000000

     Total force =     0.000000     Total SCF correction =     0.000000


     Computing stress (Cartesian axis) and pressure

          total   stress  (Ry/bohr**3)                   (kbar)     P=       20.01
   0.00018444   0.00000000   0.00000000           27.13        0.00        0.00
   0.00000000   0.00018444   0.00000000            0.00       27.13        0.00
   0.00000000   0.00000000   0.00003930            0.00        0.00        5.78

     Energy error            =      2.7E-06 Ry
     Gradient error          =      0.0E+00 Ry/Bohr
     Cell gradient error     =      5.8E+00 kbar

     number of scf cycles    =   2
     number of bfgs steps    =   1

     enthalpy           old  =    -344.0844971665 Ry
     enthalpy           new  =    -344.0844998492 Ry

     CASE: enthalpy          _new < enthalpy          _old


     WARNING: bfgs curvature condition failed, Theta= 0.205
     new trust radius        =       0.0009327814 bohr
     new conv_thr            =       0.0000000100 Ry

     new unit-cell volume =    151.96314 a.u.^3 (    22.51861 Ang^3 )
     density =      6.39914 g/cm^3

CELL_PARAMETERS (alat=  5.37330365)
   0.925000000   0.000000000   0.000000000
   0.000000000   0.925000000   0.000000000
   0.000000000   0.000000000   1.144802676

ATOMIC_POSITIONS (crystal)
Si               0.0000000000        0.0000000000        0.0000000000
Ni               0.5000000000        0.5000000000        0.5000000000



     Writing config-only to output data dir ./tmp/SiNi-relax.save/ :
     XML data file
     NEW-OLD atomic charge density approx. for the potential
     New effective cutoffs (rho, wfc):  439.49  109.99

     total cpu time spent up to now is       26.0 secs

     Self-consistent Calculation

     iteration #  1     ecut=   110.00 Ry     beta= 0.70
     Davidson diagonalization with overlap
     ethr =  1.00E-06,  avg # of iterations =  2.0

     Threshold (ethr) on eigenvalues was too large:
     Diagonalizing with lowered threshold

     Davidson diagonalization with overlap
     ethr =  5.64E-09,  avg # of iterations =  2.1

     total cpu time spent up to now is       29.7 secs

     total energy              =    -344.08450163 Ry
     estimated scf accuracy    <       0.00000184 Ry

     iteration #  2     ecut=   110.00 Ry     beta= 0.70
     Davidson diagonalization with overlap
     ethr =  8.37E-09,  avg # of iterations =  2.9

     total cpu time spent up to now is       31.7 secs

     total energy              =    -344.08450029 Ry
     estimated scf accuracy    <       0.00002101 Ry

     iteration #  3     ecut=   110.00 Ry     beta= 0.70
     Davidson diagonalization with overlap
     ethr =  8.37E-09,  avg # of iterations =  2.2

     total cpu time spent up to now is       33.6 secs

     End of self-consistent calculation

          k = 0.0000 0.0000 0.0000 (  2985 PWs)   bands (ev):

   -87.1415 -47.5971 -47.4714 -47.4714   2.5998  12.4202  12.8526  14.5597
    14.5597  15.1105  15.2870  21.2907  21.9615  21.9615  24.1798

          k = 0.0000 0.0000 0.1248 (  2977 PWs)   bands (ev):

   -87.1415 -47.5981 -47.4713 -47.4713   2.8690  11.6845  12.9010  14.4710
    14.4710  14.7562  15.1156  22.3343  22.3343  22.9754  24.0721

          k = 0.0000 0.0000 0.2496 (  2968 PWs)   bands (ev):

   -87.1414 -47.6004 -47.4712 -47.4712   3.6372   9.7879  13.0131  14.2859
    14.2859  14.4852  15.1272  23.3384  23.3384  23.8212  26.0799

          k = 0.0000 0.0000 0.3744 (  2952 PWs)   bands (ev):

   -87.1413 -47.6023 -47.4711 -47.4711   4.6529   7.9906  13.1066  14.1493
    14.1493  14.4955  15.1365  23.6112  24.5810  24.5810  28.2623

          k = 0.0000 0.1544 0.0000 (  2969 PWs)   bands (ev):

   -87.1405 -47.5959 -47.4838 -47.4703   3.0359  12.5644  12.8383  13.7580
    14.5929  14.9186  16.4351  18.8675  21.3996  22.4768  26.0239

          k = 0.0000 0.1544 0.1248 (  2972 PWs)   bands (ev):

   -87.1405 -47.5969 -47.4837 -47.4703   3.2996  11.8973  12.8777  13.7396
    14.5086  14.9306  15.6379  19.1587  22.8211  23.1894  25.9926

          k = 0.0000 0.1544 0.2496 (  2962 PWs)   bands (ev):

   -87.1404 -47.5992 -47.4836 -47.4702   4.0488  10.1252  13.0326  13.7788
    14.3352  14.8789  14.9525  19.8802  23.7413  25.3753  26.6350

          k = 0.0000 0.1544 0.3744 (  2967 PWs)   bands (ev):

   -87.1403 -47.6010 -47.4834 -47.4700   5.0244   8.4169  13.1939  13.7833
    14.2076  14.5812  14.9680  20.6287  24.8311  24.8533  26.3097

          k = 0.0000 0.3089 0.0000 (  2951 PWs)   bands (ev):

   -87.1382 -47.5933 -47.5116 -47.4681   4.3199  11.7715  13.0112  13.0318
    14.5345  14.6681  16.3482  18.2657  21.7011  23.8700  26.9692

          k = 0.0000 0.3089 0.1248 (  2943 PWs)   bands (ev):

   -87.1382 -47.5943 -47.5116 -47.4680   4.5651  11.8796  12.3143  13.3298
    14.5346  14.6160  16.3169  17.1149  23.5709  24.1363  25.1599

          k = 0.0000 0.3089 0.2496 (  2956 PWs)   bands (ev):

   -87.1381 -47.5965 -47.5113 -47.4679   5.2506  10.9746  12.2236  13.4393
    14.4426  14.5977  15.2928  17.2739  22.5315  24.8147  26.7089

          k = 0.0000 0.3089 0.3744 (  2965 PWs)   bands (ev):

   -87.1380 -47.5982 -47.5112 -47.4678   6.0958   9.6246  12.5580  13.3856
    14.3405  14.6169  14.7313  17.9292  20.9189  25.5066  27.5531

          k = 0.0000 0.4633 0.0000 (  2950 PWs)   bands (ev):

   -87.1364 -47.5912 -47.5339 -47.4663   6.3503   9.1838  12.6189  13.3182
    14.2613  14.7292  16.0311  20.5852  22.1002  23.4672  25.8413

          k = 0.0000 0.4633 0.1248 (  2960 PWs)   bands (ev):

   -87.1364 -47.5921 -47.5338 -47.4662   6.5494   9.3790  12.4762  13.3283
    14.2795  14.6723  15.9367  18.7456  21.3998  24.8439  25.9540

          k = 0.0000 0.4633 0.2496 (  2960 PWs)   bands (ev):

   -87.1363 -47.5943 -47.5336 -47.4661   7.0717   9.9232  12.0573  13.2648
    14.3212  14.5483  15.4627  17.2425  19.3596  26.1755  27.5456

          k = 0.0000 0.4633 0.3744 (  2963 PWs)   bands (ev):

   -87.1362 -47.5960 -47.5334 -47.4660   7.6143  10.6493  11.4372  12.9988
    14.3562  14.4516  14.8612  16.8613  18.1352  26.3243  29.1150

          k = 0.1544 0.1544 0.0000 (  2952 PWs)   bands (ev):

   -87.1395 -47.5947 -47.4830 -47.4825   3.4673  12.6908  12.8812  13.5935
    14.3476  14.6901  17.2164  18.6902  20.0845  21.6034  28.9865

          k = 0.1544 0.1544 0.1248 (  2963 PWs)   bands (ev):

   -87.1395 -47.5957 -47.4829 -47.4824   3.7254  12.0793  12.9355  13.6373
    14.2055  14.7065  16.2377  18.9935  20.3418  23.5467  28.5569

          k = 0.1544 0.1544 0.2496 (  2957 PWs)   bands (ev):

   -87.1394 -47.5980 -47.4827 -47.4823   4.4560  10.4439  13.0826  13.8554
    13.8965  14.7359  15.2625  19.7328  21.0208  26.8178  26.8896

          k = 0.1544 0.1544 0.3744 (  2961 PWs)   bands (ev):

   -87.1393 -47.5998 -47.4826 -47.4821   5.3932   8.8281  13.2851  13.5904
    14.1583  14.6761  14.8123  20.4718  21.8326  25.3729  25.5210

          k = 0.1544 0.3089 0.0000 (  2954 PWs)   bands (ev):

   -87.1372 -47.5921 -47.5105 -47.4803   4.7356  11.9941  13.1036  13.1051
    14.3310  14.3457  16.4848  18.8496  20.7329  22.1329  27.2368

          k = 0.1544 0.3089 0.1248 (  2958 PWs)   bands (ev):

   -87.1372 -47.5931 -47.5104 -47.4803   4.9753  12.0949  12.4331  13.4385
    14.1907  14.3947  16.6379  17.4655  20.9548  24.2466  25.4210

          k = 0.1544 0.3089 0.2496 (  2953 PWs)   bands (ev):

   -87.1371 -47.5953 -47.5102 -47.4801   5.6429  11.2318  12.3271  13.6183
    14.0453  14.4478  15.7574  17.4186  21.4848  22.9996  27.4929

          k = 0.1544 0.3089 0.3744 (  2957 PWs)   bands (ev):

   -87.1370 -47.5970 -47.5100 -47.4800   6.4562   9.9700  12.5152  13.5712
    14.2897  14.4853  14.9149  18.1009  21.3332  22.0543  26.7356

          k = 0.1544 0.4633 0.0000 (  2959 PWs)   bands (ev):

   -87.1354 -47.5900 -47.5327 -47.4784   6.7282   9.5423  12.7600  13.4690
    14.0508  14.4158  16.0106  21.0085  21.9262  23.3920  23.8542

          k = 0.1544 0.4633 0.1248 (  2964 PWs)   bands (ev):

   -87.1354 -47.5910 -47.5326 -47.4784   6.9223   9.7297  12.5289  13.5312
    14.1642  14.3433  15.9858  19.1288  21.8910  22.4940  25.2401

          k = 0.1544 0.4633 0.2496 (  2963 PWs)   bands (ev):

   -87.1353 -47.5931 -47.5323 -47.4782   7.4324  10.2362  12.0290  13.4929
    14.2224  14.4618  15.7463  17.3811  19.7187  22.8229  26.4738

          k = 0.1544 0.4633 0.3744 (  2966 PWs)   bands (ev):

   -87.1352 -47.5948 -47.5321 -47.4781   7.9660  10.8395  11.4756  13.2175
    14.4449  14.6666  15.0528  16.8463  18.3297  23.1895  27.1439

          k = 0.3089 0.3089 0.0000 (  2958 PWs)   bands (ev):

   -87.1350 -47.5896 -47.5082 -47.5074   5.9500  12.3375  12.7717  13.2289
    13.8657  14.1912  16.3404  18.5576  20.1612  22.8014  25.4727

          k = 0.3089 0.3089 0.1248 (  2953 PWs)   bands (ev):

   -87.1349 -47.5905 -47.5081 -47.5073   6.1714  12.2947  12.6090  13.1729
    13.9425  14.2399  16.6788  18.4906  18.5658  24.3565  25.9137

          k = 0.3089 0.3089 0.2496 (  2968 PWs)   bands (ev):

   -87.1348 -47.5926 -47.5079 -47.5072   6.7789  11.6887  12.3290  13.5160
    14.0505  14.3338  16.6050  17.5856  18.5659  23.9089  24.2273

          k = 0.3089 0.3089 0.3744 (  2961 PWs)   bands (ev):

   -87.1348 -47.5943 -47.5078 -47.5070   7.4902  10.7997  12.1503  14.1089
    14.2123  14.4667  15.3079  18.5427  18.7294  21.9024  23.1453

          k = 0.3089 0.4633 0.0000 (  2968 PWs)   bands (ev):

   -87.1332 -47.5875 -47.5298 -47.5057   7.8023  10.5400  13.0982  13.2020
    13.8389  13.9877  15.8927  19.2735  21.6938  21.8778  24.6318

          k = 0.3089 0.4633 0.1248 (  2955 PWs)   bands (ev):

   -87.1331 -47.5884 -47.5297 -47.5056   7.9817  10.6775  12.4749  13.6082
    13.9842  14.1735  15.9818  19.1933  20.0629  22.0626  23.2100

          k = 0.3089 0.4633 0.2496 (  2945 PWs)   bands (ev):

   -87.1330 -47.5905 -47.5295 -47.5054   8.4540  10.9664  11.8917  13.7772
    14.1885  14.7748  16.1714  17.7783  19.2516  20.9047  22.5799

          k = 0.3089 0.4633 0.3744 (  2951 PWs)   bands (ev):

   -87.1330 -47.5922 -47.5293 -47.5053   8.9548  11.1479  11.4567  14.1203
    14.5827  15.2038  15.8311  16.6868  18.7457  19.9544  23.0964

          k = 0.4633 0.4633 0.0000 (  2976 PWs)   bands (ev):

   -87.1313 -47.5854 -47.5276 -47.5274   9.2552  11.6514  12.3739  13.3741
    13.4772  13.6877  15.7184  17.9410  19.4770  22.1081  26.3897

          k = 0.4633 0.4633 0.1248 (  2960 PWs)   bands (ev):

   -87.1313 -47.5863 -47.5275 -47.5273   9.4221  11.6175  11.9382  13.2774
    14.1293  14.2624  15.7839  17.6420  19.4098  21.2419  24.4549

          k = 0.4633 0.4633 0.2496 (  2949 PWs)   bands (ev):

   -87.1312 -47.5884 -47.5273 -47.5271   9.8491  11.4314  11.4578  13.8235
    15.0275  15.0925  16.2423  16.7985  18.8349  20.2625  22.0844

          k = 0.4633 0.4633 0.3744 (  2949 PWs)   bands (ev):

   -87.1312 -47.5900 -47.5271 -47.5270  10.2608  11.1599  11.3367  14.7411
    15.3157  15.6371  16.2320  17.4157  17.6489  19.6708  20.0974

     the Fermi energy is    16.7091 ev

!    total energy              =    -344.08450288 Ry
     estimated scf accuracy    <          2.3E-09 Ry
     smearing contrib. (-TS)   =       0.00060376 Ry
     internal energy E=F+TS    =    -344.08510664 Ry

     The total energy is F=E-TS. E is the sum of the following terms:
     one-electron contribution =    -221.42001485 Ry
     hartree contribution      =     124.25369475 Ry
     xc contribution           =     -46.17134987 Ry
     ewald contribution        =    -200.74743668 Ry

     convergence has been achieved in   3 iterations

     Forces acting on atoms (cartesian axes, Ry/au):

     atom    1 type  1   force =     0.00000000    0.00000000    0.00000000
     atom    2 type  2   force =     0.00000000    0.00000000    0.00000000

     Total force =     0.000000     Total SCF correction =     0.000000


     Computing stress (Cartesian axis) and pressure

          total   stress  (Ry/bohr**3)                   (kbar)     P=       20.92
   0.00019115   0.00000000   0.00000000           28.12        0.00        0.00
   0.00000000   0.00019115   0.00000000            0.00       28.12        0.00
   0.00000000   0.00000000   0.00004427            0.00        0.00        6.51

     Energy error            =      3.0E-06 Ry
     Gradient error          =      0.0E+00 Ry/Bohr
     Cell gradient error     =      6.5E+00 kbar

     number of scf cycles    =   3
     number of bfgs steps    =   2

     enthalpy           old  =    -344.0844998492 Ry
     enthalpy           new  =    -344.0845028833 Ry

     CASE: enthalpy          _new < enthalpy          _old


     WARNING: bfgs curvature condition failed, Theta= 0.634
     uphill step: resetting bfgs history

     new trust radius        =       0.0013989074 bohr
     new conv_thr            =       0.0000000100 Ry

     new unit-cell volume =    152.04936 a.u.^3 (    22.53139 Ang^3 )
     density =      6.39551 g/cm^3

CELL_PARAMETERS (alat=  5.37330365)
   0.925000000   0.000000000   0.000000000
   0.000000000   0.925000000   0.000000000
   0.000000000   0.000000000   1.145452238

ATOMIC_POSITIONS (crystal)
Si               0.0000000000        0.0000000000        0.0000000000
Ni               0.5000000000        0.5000000000        0.5000000000



     Writing config-only to output data dir ./tmp/SiNi-relax.save/ :
     XML data file
     NEW-OLD atomic charge density approx. for the potential
     New effective cutoffs (rho, wfc):  439.32  109.99

     total cpu time spent up to now is       35.1 secs

     Self-consistent Calculation

     iteration #  1     ecut=   110.00 Ry     beta= 0.70
     Davidson diagonalization with overlap
     ethr =  1.00E-06,  avg # of iterations =  2.0

     Threshold (ethr) on eigenvalues was too large:
     Diagonalizing with lowered threshold

     Davidson diagonalization with overlap
     ethr =  1.17E-09,  avg # of iterations =  3.4

     total cpu time spent up to now is       39.1 secs

     total energy              =    -344.08450634 Ry
     estimated scf accuracy    <       0.00000052 Ry

     iteration #  2     ecut=   110.00 Ry     beta= 0.70
     Davidson diagonalization with overlap
     ethr =  2.34E-09,  avg # of iterations =  2.9

     total cpu time spent up to now is       41.2 secs

     total energy              =    -344.08450597 Ry
     estimated scf accuracy    <       0.00000572 Ry

     iteration #  3     ecut=   110.00 Ry     beta= 0.70
     Davidson diagonalization with overlap
     ethr =  2.34E-09,  avg # of iterations =  2.2

     total cpu time spent up to now is       43.2 secs

     End of self-consistent calculation

          k = 0.0000 0.0000 0.0000 (  2985 PWs)   bands (ev):

   -87.1511 -47.6066 -47.4809 -47.4809   2.5931  12.4112  12.8445  14.5504
    14.5504  15.1016  15.2671  21.2689  21.9546  21.9546  24.1686

          k = 0.0000 0.0000 0.1247 (  2977 PWs)   bands (ev):

   -87.1511 -47.6077 -47.4808 -47.4808   2.8619  11.6737  12.8928  14.4620
    14.4620  14.7402  15.1067  22.3267  22.3267  22.9517  24.0611

          k = 0.0000 0.0000 0.2494 (  2968 PWs)   bands (ev):

   -87.1510 -47.6100 -47.4807 -47.4807   3.6288   9.7768  13.0045  14.2775
    14.2775  14.4724  15.1183  23.3290  23.3290  23.8106  26.0563

          k = 0.0000 0.0000 0.3742 (  2952 PWs)   bands (ev):

   -87.1509 -47.6118 -47.4806 -47.4806   4.6423   7.9818  13.0977  14.1413
    14.1413  14.4832  15.1276  23.6011  24.5688  24.5688  28.2535

          k = 0.0000 0.1544 0.0000 (  2969 PWs)   bands (ev):

   -87.1501 -47.6055 -47.4933 -47.4799   3.0292  12.5559  12.8304  13.7462
    14.5835  14.9100  16.4175  18.8585  21.3780  22.4696  26.0132

          k = 0.0000 0.1544 0.1247 (  2972 PWs)   bands (ev):

   -87.1501 -47.6065 -47.4932 -47.4798   3.2924  11.8867  12.8699  13.7291
    14.4995  14.9220  15.6234  19.1490  22.8132  23.1662  25.9813

          k = 0.0000 0.1544 0.2494 (  2962 PWs)   bands (ev):

   -87.1500 -47.6088 -47.4931 -47.4797   4.0405  10.1143  13.0243  13.7696
    14.3268  14.8667  14.9437  19.8692  23.7317  25.3642  26.6131

          k = 0.0000 0.1544 0.3742 (  2967 PWs)   bands (ev):

   -87.1499 -47.6106 -47.4930 -47.4796   5.0139   8.4082  13.1851  13.7752
    14.1995  14.5691  14.9591  20.6161  24.8188  24.8440  26.2975

          k = 0.0000 0.3089 0.0000 (  2951 PWs)   bands (ev):

   -87.1478 -47.6029 -47.5212 -47.4776   4.3131  11.7650  12.9999  13.0231
    14.5262  14.6587  16.3379  18.2474  21.6808  23.8619  26.9498

          k = 0.0000 0.3089 0.1247 (  2943 PWs)   bands (ev):

   -87.1478 -47.6038 -47.5211 -47.4776   4.5579  11.8728  12.3040  13.3203
    14.5262  14.6070  16.3053  17.0998  23.5514  24.1277  25.1410

          k = 0.0000 0.3089 0.2494 (  2956 PWs)   bands (ev):

   -87.1477 -47.6060 -47.5209 -47.4774   5.2423  10.9644  12.2162  13.4300
    14.4341  14.5891  15.2802  17.2615  22.5184  24.8047  26.6914

          k = 0.0000 0.3089 0.3742 (  2965 PWs)   bands (ev):

   -87.1476 -47.6078 -47.5207 -47.4773   6.0856   9.6161  12.5499  13.3766
    14.3324  14.6083  14.7194  17.9155  20.9084  25.4948  27.5403

          k = 0.0000 0.4633 0.0000 (  2950 PWs)   bands (ev):

   -87.1460 -47.6008 -47.5435 -47.4758   6.3435   9.1771  12.6081  13.3094
    14.2533  14.7198  16.0212  20.5662  22.0826  23.4478  25.8321

          k = 0.0000 0.4633 0.1247 (  2960 PWs)   bands (ev):

   -87.1460 -47.6017 -47.5434 -47.4758   6.5423   9.3720  12.4658  13.3193
    14.2714  14.6631  15.9264  18.7289  21.3830  24.8243  25.9444

          k = 0.0000 0.4633 0.2494 (  2960 PWs)   bands (ev):

   -87.1459 -47.6038 -47.5431 -47.4756   7.0637   9.9152  12.0480  13.2556
    14.3129  14.5397  15.4512  17.2284  19.3457  26.1652  27.5287

          k = 0.0000 0.4633 0.3742 (  2963 PWs)   bands (ev):

   -87.1458 -47.6055 -47.5429 -47.4755   7.6049  10.6401  11.4289  12.9902
    14.3477  14.4433  14.8495  16.8474  18.1240  26.3136  29.1006

          k = 0.1544 0.1544 0.0000 (  2952 PWs)   bands (ev):

   -87.1491 -47.6043 -47.4925 -47.4920   3.4605  12.6824  12.8736  13.5817
    14.3382  14.6817  17.1989  18.6806  20.0761  21.5814  28.9777

          k = 0.1544 0.1544 0.1247 (  2963 PWs)   bands (ev):

   -87.1491 -47.6053 -47.4924 -47.4919   3.7183  12.0690  12.9278  13.6269
    14.1964  14.6981  16.2229  18.9834  20.3327  23.5225  28.5464

          k = 0.1544 0.1544 0.2494 (  2957 PWs)   bands (ev):

   -87.1490 -47.6075 -47.4923 -47.4918   4.4476  10.4333  13.0746  13.8460
    13.8880  14.7273  15.2505  19.7214  21.0104  26.8065  26.8673

          k = 0.1544 0.1544 0.3742 (  2961 PWs)   bands (ev):

   -87.1489 -47.6093 -47.4921 -47.4917   5.3828   8.8195  13.2767  13.5824
    14.1493  14.6653  14.8028  20.4589  21.8200  25.3635  25.5109

          k = 0.1544 0.3089 0.0000 (  2954 PWs)   bands (ev):

   -87.1468 -47.6017 -47.5200 -47.4899   4.7289  11.9875  13.0925  13.0969
    14.3215  14.3376  16.4743  18.8313  20.7238  22.1117  27.2174

          k = 0.1544 0.3089 0.1247 (  2958 PWs)   bands (ev):

   -87.1468 -47.6027 -47.5199 -47.4898   4.9682  12.0881  12.4230  13.4292
    14.1817  14.3863  16.6270  17.4497  20.9451  24.2242  25.4037

          k = 0.1544 0.3089 0.2494 (  2953 PWs)   bands (ev):

   -87.1467 -47.6048 -47.5197 -47.4896   5.6346  11.2219  12.3198  13.6091
    14.0365  14.4393  15.7447  17.4063  21.4740  22.9862  27.4720

          k = 0.1544 0.3089 0.3742 (  2957 PWs)   bands (ev):

   -87.1466 -47.6066 -47.5195 -47.4895   6.4462   9.9617  12.5076  13.5624
    14.2805  14.4767  14.9034  18.0873  21.3227  22.0419  26.7254

          k = 0.1544 0.4633 0.0000 (  2959 PWs)   bands (ev):

   -87.1450 -47.5996 -47.5422 -47.4880   6.7216   9.5357  12.7493  13.4605
    14.0427  14.4063  16.0006  20.9897  21.9146  23.3752  23.8347

          k = 0.1544 0.4633 0.1247 (  2964 PWs)   bands (ev):

   -87.1450 -47.6006 -47.5421 -47.4879   6.9153   9.7228  12.5190  13.5224
    14.1558  14.3341  15.9756  19.1122  21.8748  22.4830  25.2235

          k = 0.1544 0.4633 0.2494 (  2963 PWs)   bands (ev):

   -87.1449 -47.6027 -47.5418 -47.4877   7.4244  10.2283  12.0203  13.4839
    14.2134  14.4531  15.7352  17.3669  19.7048  22.8120  26.4626

          k = 0.1544 0.4633 0.3742 (  2966 PWs)   bands (ev):

   -87.1448 -47.6044 -47.5417 -47.4876   7.9568  10.8306  11.4679  13.2089
    14.4355  14.6578  15.0415  16.8326  18.3185  23.1775  27.1319

          k = 0.3089 0.3089 0.0000 (  2958 PWs)   bands (ev):

   -87.1446 -47.5991 -47.5178 -47.5169   5.9433  12.3307  12.7650  13.2181
    13.8562  14.1832  16.3300  18.5469  20.1427  22.7821  25.4613

          k = 0.3089 0.3089 0.1247 (  2953 PWs)   bands (ev):

   -87.1445 -47.6001 -47.5177 -47.5169   6.1643  12.2870  12.6021  13.1630
    13.9333  14.2318  16.6681  18.4745  18.5546  24.3406  25.8977

          k = 0.3089 0.3089 0.2494 (  2968 PWs)   bands (ev):

   -87.1444 -47.6022 -47.5175 -47.5167   6.7708  11.6800  12.3220  13.5070
    14.0415  14.3253  16.5914  17.5738  18.5541  23.8955  24.2137

          k = 0.3089 0.3089 0.3742 (  2961 PWs)   bands (ev):

   -87.1444 -47.6039 -47.5173 -47.5166   7.4806  10.7919  12.1433  14.0999
    14.2033  14.4571  15.2962  18.5302  18.7156  21.8920  23.1344

          k = 0.3089 0.4633 0.0000 (  2968 PWs)   bands (ev):

   -87.1427 -47.5971 -47.5393 -47.5152   7.7959  10.5334  13.0879  13.1947
    13.8292  13.9798  15.8827  19.2626  21.6752  21.8682  24.6116

          k = 0.3089 0.4633 0.1247 (  2955 PWs)   bands (ev):

   -87.1427 -47.5980 -47.5392 -47.5151   7.9750  10.6706  12.4665  13.5992
    13.9750  14.1649  15.9716  19.1814  20.0473  22.0528  23.1926

          k = 0.3089 0.4633 0.2494 (  2945 PWs)   bands (ev):

   -87.1426 -47.6000 -47.5390 -47.5150   8.4464  10.9589  11.8840  13.7680
    14.1798  14.7654  16.1605  17.7643  19.2397  20.8908  22.5686

          k = 0.3089 0.4633 0.3742 (  2951 PWs)   bands (ev):

   -87.1426 -47.6017 -47.5388 -47.5148   8.9460  11.1402  11.4497  14.1116
    14.5724  15.1942  15.8200  16.6738  18.7352  19.9410  23.0839

          k = 0.4633 0.4633 0.0000 (  2976 PWs)   bands (ev):

   -87.1409 -47.5950 -47.5371 -47.5370   9.2496  11.6447  12.3670  13.3643
    13.4676  13.6803  15.7087  17.9285  19.4673  22.0897  26.3690

          k = 0.4633 0.4633 0.1247 (  2960 PWs)   bands (ev):

   -87.1409 -47.5959 -47.5370 -47.5369   9.4162  11.6105  11.9310  13.2687
    14.1199  14.2536  15.7741  17.6290  19.3997  21.2263  24.4370

          k = 0.4633 0.4633 0.2494 (  2949 PWs)   bands (ev):

   -87.1408 -47.5979 -47.5368 -47.5367   9.8423  11.4243  11.4509  13.8144
    15.0182  15.0828  16.2318  16.7855  18.8238  20.2495  22.0698

          k = 0.4633 0.4633 0.3742 (  2949 PWs)   bands (ev):

   -87.1408 -47.5996 -47.5367 -47.5365  10.2530  11.1529  11.3301  14.7305
    15.3064  15.6250  16.2214  17.4051  17.6370  19.6584  20.0841

     the Fermi energy is    16.6964 ev

!    total energy              =    -344.08450668 Ry
     estimated scf accuracy    <          1.2E-09 Ry
     smearing contrib. (-TS)   =       0.00059823 Ry
     internal energy E=F+TS    =    -344.08510490 Ry

     The total energy is F=E-TS. E is the sum of the following terms:
     one-electron contribution =    -221.50008493 Ry
     hartree contribution      =     124.28608977 Ry
     xc contribution           =     -46.17060692 Ry
     ewald contribution        =    -200.70050282 Ry

     convergence has been achieved in   3 iterations

     Forces acting on atoms (cartesian axes, Ry/au):

     atom    1 type  1   force =     0.00000000    0.00000000    0.00000000
     atom    2 type  2   force =     0.00000000    0.00000000    0.00000000

     Total force =     0.000000     Total SCF correction =     0.000000


     Computing stress (Cartesian axis) and pressure

          total   stress  (Ry/bohr**3)                   (kbar)     P=       20.15
   0.00018669   0.00000000   0.00000000           27.46        0.00        0.00
   0.00000000   0.00018669   0.00000000            0.00       27.46        0.00
   0.00000000   0.00000000   0.00003756            0.00        0.00        5.52

     Energy error            =      3.8E-06 Ry
     Gradient error          =      0.0E+00 Ry/Bohr
     Cell gradient error     =      5.5E+00 kbar

     number of scf cycles    =   4
     number of bfgs steps    =   3

     enthalpy           old  =    -344.0845028833 Ry
     enthalpy           new  =    -344.0845066756 Ry

     CASE: enthalpy          _new < enthalpy          _old

     new trust radius        =       0.0020977661 bohr
     new conv_thr            =       0.0000000100 Ry

     new unit-cell volume =    152.17870 a.u.^3 (    22.55056 Ang^3 )
     density =      6.39008 g/cm^3

CELL_PARAMETERS (alat=  5.37330365)
   0.925000000   0.000000000   0.000000000
   0.000000000   0.925000000   0.000000000
   0.000000000   0.000000000   1.146426581

ATOMIC_POSITIONS (crystal)
Si               0.0000000000        0.0000000000        0.0000000000
Ni               0.5000000000        0.5000000000        0.5000000000



     Writing config-only to output data dir ./tmp/SiNi-relax.save/ :
     XML data file
     NEW-OLD atomic charge density approx. for the potential
     New effective cutoffs (rho, wfc):  439.24  109.99

     total cpu time spent up to now is       44.7 secs

     Self-consistent Calculation

     iteration #  1     ecut=   110.00 Ry     beta= 0.70
     Davidson diagonalization with overlap
     ethr =  1.00E-06,  avg # of iterations =  2.2

     Threshold (ethr) on eigenvalues was too large:
     Diagonalizing with lowered threshold

     Davidson diagonalization with overlap
     ethr =  1.35E-09,  avg # of iterations =  3.7

     total cpu time spent up to now is       48.7 secs

     total energy              =    -344.08451051 Ry
     estimated scf accuracy    <       0.00000065 Ry

     iteration #  2     ecut=   110.00 Ry     beta= 0.70
     Davidson diagonalization with overlap
     ethr =  2.94E-09,  avg # of iterations =  2.9

     total cpu time spent up to now is       50.8 secs

     total energy              =    -344.08451005 Ry
     estimated scf accuracy    <       0.00000699 Ry

     iteration #  3     ecut=   110.00 Ry     beta= 0.70
     Davidson diagonalization with overlap
     ethr =  2.94E-09,  avg # of iterations =  2.2

     total cpu time spent up to now is       52.7 secs

     End of self-consistent calculation

          k = 0.0000 0.0000 0.0000 (  2985 PWs)   bands (ev):

   -87.1656 -47.6211 -47.4952 -47.4952   2.5830  12.3977  12.8324  14.5364
    14.5364  15.0883  15.2374  21.2362  21.9442  21.9442  24.1519

          k = 0.0000 0.0000 0.1246 (  2977 PWs)   bands (ev):

   -87.1655 -47.6221 -47.4952 -47.4952   2.8512  11.6575  12.8804  14.4485
    14.4485  14.7163  15.0934  22.3153  22.3153  22.9161  24.0446

          k = 0.0000 0.0000 0.2492 (  2968 PWs)   bands (ev):

   -87.1654 -47.6243 -47.4951 -47.4951   3.6162   9.7601  12.9916  14.2649
    14.2649  14.4532  15.1049  23.3150  23.3150  23.7948  26.0209

          k = 0.0000 0.0000 0.3738 (  2952 PWs)   bands (ev):

   -87.1654 -47.6262 -47.4949 -47.4949   4.6265   7.9686  13.0842  14.1293
    14.1293  14.4648  15.1141  23.5860  24.5504  24.5504  28.2404

          k = 0.0000 0.1544 0.0000 (  2969 PWs)   bands (ev):

   -87.1646 -47.6199 -47.5077 -47.4942   3.0190  12.5430  12.8186  13.7286
    14.5695  14.8970  16.3913  18.8449  21.3456  22.4586  25.9973

          k = 0.0000 0.1544 0.1246 (  2972 PWs)   bands (ev):

   -87.1645 -47.6209 -47.5076 -47.4942   3.2817  11.8708  12.8580  13.7134
    14.4860  14.9089  15.6016  19.1346  22.8013  23.1314  25.9645

          k = 0.0000 0.1544 0.2492 (  2962 PWs)   bands (ev):

   -87.1644 -47.6231 -47.5074 -47.4940   4.0279  10.0980  13.0118  13.7557
    14.3141  14.8485  14.9305  19.8527  23.7173  25.3475  26.5802

          k = 0.0000 0.1544 0.3738 (  2967 PWs)   bands (ev):

   -87.1644 -47.6249 -47.5073 -47.4939   4.9982   8.3951  13.1718  13.7631
    14.1875  14.5510  14.9458  20.5971  24.8005  24.8300  26.2792

          k = 0.0000 0.3089 0.0000 (  2951 PWs)   bands (ev):

   -87.1623 -47.6173 -47.5355 -47.4920   4.3029  11.7553  12.9830  13.0100
    14.5138  14.6447  16.3223  18.2201  21.6505  23.8498  26.9207

          k = 0.0000 0.3089 0.1246 (  2943 PWs)   bands (ev):

   -87.1622 -47.6182 -47.5354 -47.4919   4.5472  11.8625  12.2884  13.3060
    14.5135  14.5935  16.2879  17.0773  23.5221  24.1148  25.1127

          k = 0.0000 0.3089 0.2492 (  2956 PWs)   bands (ev):

   -87.1622 -47.6204 -47.5352 -47.4918   5.2298  10.9492  12.2052  13.4160
    14.4213  14.5763  15.2614  17.2430  22.4988  24.7896  26.6651

          k = 0.0000 0.3089 0.3738 (  2965 PWs)   bands (ev):

   -87.1621 -47.6221 -47.5351 -47.4917   6.0704   9.6034  12.5377  13.3632
    14.3201  14.5954  14.7017  17.8950  20.8927  25.4772  27.5211

          k = 0.0000 0.4633 0.0000 (  2950 PWs)   bands (ev):

   -87.1604 -47.6152 -47.5578 -47.4902   6.3334   9.1672  12.5918  13.2962
    14.2412  14.7057  16.0063  20.5377  22.0561  23.4188  25.8183

          k = 0.0000 0.4633 0.1246 (  2960 PWs)   bands (ev):

   -87.1604 -47.6161 -47.5577 -47.4901   6.5317   9.3616  12.4503  13.3058
    14.2592  14.6494  15.9110  18.7040  21.3579  24.7948  25.9301

          k = 0.0000 0.4633 0.2492 (  2960 PWs)   bands (ev):

   -87.1603 -47.6182 -47.5574 -47.4900   7.0516   9.9033  12.0343  13.2418
    14.3004  14.5267  15.4340  17.2073  19.3249  26.1498  27.5034

          k = 0.0000 0.4633 0.3738 (  2963 PWs)   bands (ev):

   -87.1603 -47.6199 -47.5572 -47.4899   7.5910  10.6263  11.4165  12.9773
    14.3351  14.4309  14.8319  16.8265  18.1073  26.2975  29.0790

          k = 0.1544 0.1544 0.0000 (  2952 PWs)   bands (ev):

   -87.1635 -47.6187 -47.5069 -47.5063   3.4504  12.6698  12.8622  13.5639
    14.3242  14.6691  17.1727  18.6663  20.0634  21.5484  28.9644

          k = 0.1544 0.1544 0.1246 (  2963 PWs)   bands (ev):

   -87.1635 -47.6197 -47.5068 -47.5063   3.7076  12.0535  12.9163  13.6114
    14.1828  14.6854  16.2008  18.9683  20.3192  23.4863  28.5307

          k = 0.1544 0.1544 0.2492 (  2957 PWs)   bands (ev):

   -87.1634 -47.6219 -47.5066 -47.5061   4.4351  10.4173  13.0626  13.8317
    13.8752  14.7142  15.2325  19.7044  20.9948  26.7896  26.8336

          k = 0.1544 0.1544 0.3738 (  2961 PWs)   bands (ev):

   -87.1634 -47.6237 -47.5065 -47.5060   5.3673   8.8066  13.2639  13.5706
    14.1358  14.6490  14.7886  20.4396  21.8011  25.3492  25.4956

          k = 0.1544 0.3089 0.0000 (  2954 PWs)   bands (ev):

   -87.1613 -47.6161 -47.5343 -47.5042   4.7187  11.9777  13.0757  13.0846
    14.3072  14.3255  16.4586  18.8041  20.7100  22.0801  27.1885

          k = 0.1544 0.3089 0.1246 (  2958 PWs)   bands (ev):

   -87.1612 -47.6171 -47.5343 -47.5042   4.9575  12.0780  12.4077  13.4152
    14.1681  14.3737  16.6106  17.4261  20.9307  24.1904  25.3778

          k = 0.1544 0.3089 0.2492 (  2953 PWs)   bands (ev):

   -87.1612 -47.6192 -47.5341 -47.5040   5.6222  11.2071  12.3090  13.5952
    14.0233  14.4266  15.7258  17.3879  21.4577  22.9662  27.4405

          k = 0.1544 0.3089 0.3738 (  2957 PWs)   bands (ev):

   -87.1611 -47.6209 -47.5339 -47.5039   6.4311   9.9493  12.4961  13.5491
    14.2668  14.4638  14.8861  18.0669  21.3069  22.0232  26.7102

          k = 0.1544 0.4633 0.0000 (  2959 PWs)   bands (ev):

   -87.1594 -47.6140 -47.5565 -47.5023   6.7115   9.5258  12.7333  13.4478
    14.0307  14.3920  15.9857  20.9614  21.8973  23.3500  23.8055

          k = 0.1544 0.4633 0.1246 (  2964 PWs)   bands (ev):

   -87.1594 -47.6150 -47.5564 -47.5023   6.9048   9.7124  12.5041  13.5092
    14.1432  14.3202  15.9603  19.0874  21.8505  22.4664  25.1985

          k = 0.1544 0.4633 0.2492 (  2963 PWs)   bands (ev):

   -87.1593 -47.6170 -47.5562 -47.5021   7.4125  10.2166  12.0072  13.4704
    14.1999  14.4399  15.7186  17.3456  19.6839  22.7956  26.4459

          k = 0.1544 0.4633 0.3738 (  2966 PWs)   bands (ev):

   -87.1593 -47.6187 -47.5560 -47.5020   7.9430  10.8173  11.4563  13.1961
    14.4216  14.6447  15.0246  16.8120  18.3019  23.1595  27.1139

          k = 0.3089 0.3089 0.0000 (  2958 PWs)   bands (ev):

   -87.1590 -47.6136 -47.5321 -47.5313   5.9333  12.3206  12.7549  13.2019
    13.8419  14.1711  16.3144  18.5308  20.1150  22.7532  25.4442

          k = 0.3089 0.3089 0.1246 (  2953 PWs)   bands (ev):

   -87.1590 -47.6145 -47.5320 -47.5312   6.1538  12.2754  12.5917  13.1480
    13.9194  14.2195  16.6520  18.4502  18.5379  24.3167  25.8737

          k = 0.3089 0.3089 0.2492 (  2968 PWs)   bands (ev):

   -87.1589 -47.6166 -47.5318 -47.5310   6.7586  11.6670  12.3114  13.4934
    14.0280  14.3127  16.5710  17.5562  18.5365  23.8753  24.1932

          k = 0.3089 0.3089 0.3738 (  2961 PWs)   bands (ev):

   -87.1588 -47.6182 -47.5316 -47.5309   7.4661  10.7803  12.1328  14.0864
    14.1899  14.4428  15.2787  18.5115  18.6950  21.8764  23.1182

          k = 0.3089 0.4633 0.0000 (  2968 PWs)   bands (ev):

   -87.1572 -47.6115 -47.5537 -47.5296   7.7863  10.5236  13.0725  13.1838
    13.8147  13.9678  15.8678  19.2463  21.6473  21.8538  24.5814

          k = 0.3089 0.4633 0.1246 (  2955 PWs)   bands (ev):

   -87.1572 -47.6124 -47.5536 -47.5295   7.9649  10.6604  12.4539  13.5857
    13.9614  14.1520  15.9564  19.1637  20.0238  22.0380  23.1665

          k = 0.3089 0.4633 0.2492 (  2945 PWs)   bands (ev):

   -87.1571 -47.6144 -47.5534 -47.5293   8.4350  10.9478  11.8723  13.7543
    14.1666  14.7513  16.1442  17.7434  19.2220  20.8701  22.5518

          k = 0.3089 0.4633 0.3738 (  2951 PWs)   bands (ev):

   -87.1570 -47.6161 -47.5532 -47.5292   8.9329  11.1285  11.4392  14.0985
    14.5568  15.1800  15.8034  16.6543  18.7193  19.9209  23.0651

          k = 0.4633 0.4633 0.0000 (  2976 PWs)   bands (ev):

   -87.1554 -47.6094 -47.5514 -47.5513   9.2411  11.6346  12.3567  13.3495
    13.4531  13.6692  15.6942  17.9097  19.4528  22.0623  26.3379

          k = 0.4633 0.4633 0.1246 (  2960 PWs)   bands (ev):

   -87.1554 -47.6103 -47.5514 -47.5512   9.4073  11.6001  11.9203  13.2557
    14.1058  14.2403  15.7593  17.6096  19.3847  21.2030  24.4102

          k = 0.4633 0.4633 0.2492 (  2949 PWs)   bands (ev):

   -87.1553 -47.6123 -47.5512 -47.5510   9.8321  11.4137  11.4404  13.8007
    15.0041  15.0683  16.2160  16.7660  18.8070  20.2301  22.0479

          k = 0.4633 0.4633 0.3738 (  2949 PWs)   bands (ev):

   -87.1552 -47.6139 -47.5510 -47.5509  10.2414  11.1424  11.3202  14.7148
    15.2924  15.6070  16.2054  17.3890  17.6192  19.6399  20.0643

     the Fermi energy is    16.6775 ev

!    total energy              =    -344.08451092 Ry
     estimated scf accuracy    <          2.2E-09 Ry
     smearing contrib. (-TS)   =       0.00058965 Ry
     internal energy E=F+TS    =    -344.08510057 Ry

     The total energy is F=E-TS. E is the sum of the following terms:
     one-electron contribution =    -221.61958625 Ry
     hartree contribution      =     124.33401340 Ry
     xc contribution           =     -46.16940362 Ry
     ewald contribution        =    -200.63012409 Ry

     convergence has been achieved in   3 iterations

     Forces acting on atoms (cartesian axes, Ry/au):

     atom    1 type  1   force =     0.00000000    0.00000000    0.00000000
     atom    2 type  2   force =     0.00000000    0.00000000    0.00000000

     Total force =     0.000000     Total SCF correction =     0.000000


     Computing stress (Cartesian axis) and pressure

          total   stress  (Ry/bohr**3)                   (kbar)     P=       18.56
   0.00017705   0.00000000   0.00000000           26.04        0.00        0.00
   0.00000000   0.00017705   0.00000000            0.00       26.04        0.00
   0.00000000   0.00000000   0.00002446            0.00        0.00        3.60

     Energy error            =      4.2E-06 Ry
     Gradient error          =      0.0E+00 Ry/Bohr
     Cell gradient error     =      3.6E+00 kbar

     number of scf cycles    =   5
     number of bfgs steps    =   4

     enthalpy           old  =    -344.0845066756 Ry
     enthalpy           new  =    -344.0845109216 Ry

     CASE: enthalpy          _new < enthalpy          _old

     new trust radius        =       0.0031453117 bohr
     new conv_thr            =       0.0000000100 Ry

     new unit-cell volume =    152.37270 a.u.^3 (    22.57930 Ang^3 )
     density =      6.38194 g/cm^3

CELL_PARAMETERS (alat=  5.37330365)
   0.925000000   0.000000000   0.000000000
   0.000000000   0.925000000   0.000000000
   0.000000000   0.000000000   1.147888095

ATOMIC_POSITIONS (crystal)
Si               0.0000000000        0.0000000000        0.0000000000
Ni               0.5000000000        0.5000000000        0.5000000000



     Writing config-only to output data dir ./tmp/SiNi-relax.save/ :
     XML data file
     NEW-OLD atomic charge density approx. for the potential
     New effective cutoffs (rho, wfc):  439.22  109.99

     total cpu time spent up to now is       54.0 secs

     Self-consistent Calculation

     iteration #  1     ecut=   110.00 Ry     beta= 0.70
     Davidson diagonalization with overlap
     ethr =  1.00E-06,  avg # of iterations =  2.9

     Threshold (ethr) on eigenvalues was too large:
     Diagonalizing with lowered threshold

     Davidson diagonalization with overlap
     ethr =  3.45E-09,  avg # of iterations =  3.1

     total cpu time spent up to now is       58.0 secs

     total energy              =    -344.08451329 Ry
     estimated scf accuracy    <       0.00000122 Ry

     iteration #  2     ecut=   110.00 Ry     beta= 0.70
     Davidson diagonalization with overlap
     ethr =  5.57E-09,  avg # of iterations =  2.8

     total cpu time spent up to now is       60.0 secs

     total energy              =    -344.08451242 Ry
     estimated scf accuracy    <       0.00001303 Ry

     iteration #  3     ecut=   110.00 Ry     beta= 0.70
     Davidson diagonalization with overlap
     ethr =  5.57E-09,  avg # of iterations =  2.2

     total cpu time spent up to now is       61.9 secs

     End of self-consistent calculation

          k = 0.0000 0.0000 0.0000 (  2985 PWs)   bands (ev):

   -87.1872 -47.6426 -47.5167 -47.5167   2.5679  12.3774  12.8143  14.5155
    14.5155  15.0684  15.1929  21.1872  21.9286  21.9286  24.1268

          k = 0.0000 0.0000 0.1245 (  2977 PWs)   bands (ev):

   -87.1872 -47.6437 -47.5167 -47.5167   2.8352  11.6331  12.8620  14.4282
    14.4282  14.6806  15.0734  22.2983  22.2983  22.8627  24.0200

          k = 0.0000 0.0000 0.2489 (  2968 PWs)   bands (ev):

   -87.1871 -47.6459 -47.5166 -47.5166   3.5975   9.7352  12.9722  14.2460
    14.2460  14.4244  15.0847  23.2939  23.2939  23.7712  25.9677

          k = 0.0000 0.0000 0.3734 (  2952 PWs)   bands (ev):

   -87.1870 -47.6477 -47.5165 -47.5165   4.6028   7.9488  13.0641  14.1114
    14.1114  14.4373  15.0938  23.5634  24.5229  24.5229  28.2208

          k = 0.0000 0.1544 0.0000 (  2969 PWs)   bands (ev):

   -87.1862 -47.6415 -47.5292 -47.5157   3.0039  12.5237  12.8008  13.7022
    14.5486  14.8776  16.3521  18.8246  21.2971  22.4423  25.9735

          k = 0.0000 0.1544 0.1245 (  2972 PWs)   bands (ev):

   -87.1862 -47.6425 -47.5291 -47.5157   3.2657  11.8470  12.8403  13.6898
    14.4657  14.8893  15.5690  19.1130  22.7836  23.0792  25.9394

          k = 0.0000 0.1544 0.2489 (  2962 PWs)   bands (ev):

   -87.1861 -47.6447 -47.5289 -47.5156   4.0092  10.0736  12.9932  13.7350
    14.2951  14.8213  14.9107  19.8281  23.6957  25.3223  26.5309

          k = 0.0000 0.1544 0.3734 (  2967 PWs)   bands (ev):

   -87.1860 -47.6464 -47.5288 -47.5155   4.9747   8.3755  13.1519  13.7448
    14.1694  14.5240  14.9259  20.5686  24.7731  24.8092  26.2518

          k = 0.0000 0.3089 0.0000 (  2951 PWs)   bands (ev):

   -87.1839 -47.6389 -47.5570 -47.5135   4.2877  11.7408  12.9577  12.9904
    14.4952  14.6237  16.2989  18.1793  21.6050  23.8317  26.8772

          k = 0.0000 0.3089 0.1245 (  2943 PWs)   bands (ev):

   -87.1839 -47.6398 -47.5569 -47.5134   4.5311  11.8471  12.2652  13.2845
    14.4946  14.5732  16.2618  17.0436  23.4780  24.0954  25.0705

          k = 0.0000 0.3089 0.2489 (  2956 PWs)   bands (ev):

   -87.1838 -47.6420 -47.5567 -47.5133   5.2112  10.9265  12.1886  13.3950
    14.4022  14.5570  15.2332  17.2152  22.4694  24.7671  26.6256

          k = 0.0000 0.3089 0.3734 (  2965 PWs)   bands (ev):

   -87.1838 -47.6437 -47.5566 -47.5132   6.0476   9.5844  12.5196  13.3430
    14.3018  14.5760  14.6751  17.8642  20.8691  25.4508  27.4924

          k = 0.0000 0.4633 0.0000 (  2950 PWs)   bands (ev):

   -87.1821 -47.6368 -47.5793 -47.5117   6.3183   9.1524  12.5674  13.2764
    14.2230  14.6847  15.9839  20.4951  22.0165  23.3754  25.7976

          k = 0.0000 0.4633 0.1245 (  2960 PWs)   bands (ev):

   -87.1821 -47.6377 -47.5792 -47.5116   6.5158   9.3460  12.4270  13.2855
    14.2409  14.6289  15.8878  18.6668  21.3203  24.7507  25.9086

          k = 0.0000 0.4633 0.2489 (  2960 PWs)   bands (ev):

   -87.1820 -47.6398 -47.5789 -47.5115   7.0334   9.8855  12.0136  13.2212
    14.2818  14.5072  15.4081  17.1757  19.2939  26.1267  27.4655

          k = 0.0000 0.4633 0.3734 (  2963 PWs)   bands (ev):

   -87.1819 -47.6414 -47.5787 -47.5114   7.5700  10.6057  11.3980  12.9579
    14.3161  14.4123  14.8057  16.7952  18.0822  26.2734  29.0467

          k = 0.1544 0.1544 0.0000 (  2952 PWs)   bands (ev):

   -87.1852 -47.6403 -47.5284 -47.5278   3.4352  12.6509  12.8452  13.5373
    14.3031  14.6503  17.1336  18.6449  20.0445  21.4990  28.9446

          k = 0.1544 0.1544 0.1245 (  2963 PWs)   bands (ev):

   -87.1852 -47.6413 -47.5283 -47.5278   3.6916  12.0303  12.8989  13.5882
    14.1624  14.6663  16.1678  18.9457  20.2990  23.4319  28.5071

          k = 0.1544 0.1544 0.2489 (  2957 PWs)   bands (ev):

   -87.1851 -47.6435 -47.5281 -47.5276   4.4164  10.3935  13.0446  13.8104
    13.8561  14.6947  15.2055  19.6790  20.9715  26.7643  26.7827

          k = 0.1544 0.1544 0.3734 (  2961 PWs)   bands (ev):

   -87.1850 -47.6452 -47.5280 -47.5275   5.3440   8.7872  13.2448  13.5528
    14.1156  14.6245  14.7675  20.4107  21.7729  25.3279  25.4728

          k = 0.1544 0.3089 0.0000 (  2954 PWs)   bands (ev):

   -87.1829 -47.6377 -47.5558 -47.5257   4.7036  11.9631  13.0507  13.0661
    14.2858  14.3072  16.4351  18.7633  20.6895  22.0326  27.1452

          k = 0.1544 0.3089 0.1245 (  2958 PWs)   bands (ev):

   -87.1829 -47.6387 -47.5557 -47.5257   4.9415  12.0629  12.3849  13.3944
    14.1478  14.3548  16.5859  17.3907  20.9091  24.1399  25.3391

          k = 0.1544 0.3089 0.2489 (  2953 PWs)   bands (ev):

   -87.1828 -47.6408 -47.5556 -47.5255   5.6037  11.1850  12.2927  13.5745
    14.0035  14.4075  15.6976  17.3604  21.4334  22.9363  27.3932

          k = 0.1544 0.3089 0.3734 (  2957 PWs)   bands (ev):

   -87.1828 -47.6425 -47.5554 -47.5254   6.4086   9.9306  12.4791  13.5291
    14.2462  14.4445  14.8604  18.0363  21.2833  21.9954  26.6874

          k = 0.1544 0.4633 0.0000 (  2959 PWs)   bands (ev):

   -87.1811 -47.6356 -47.5780 -47.5238   6.6966   9.5110  12.7093  13.4288
    14.0126  14.3706  15.9633  20.9192  21.8712  23.3124  23.7618

          k = 0.1544 0.4633 0.1245 (  2964 PWs)   bands (ev):

   -87.1811 -47.6366 -47.5779 -47.5238   6.8891   9.6969  12.4818  13.4894
    14.1243  14.2994  15.9373  19.0504  21.8140  22.4418  25.1608

          k = 0.1544 0.4633 0.2489 (  2963 PWs)   bands (ev):

   -87.1810 -47.6386 -47.5777 -47.5236   7.3946  10.1989  11.9876  13.4502
    14.1798  14.4201  15.6937  17.3138  19.6527  22.7711  26.4208

          k = 0.1544 0.4633 0.3734 (  2966 PWs)   bands (ev):

   -87.1809 -47.6402 -47.5775 -47.5235   7.9224  10.7974  11.4389  13.1770
    14.4006  14.6251  14.9994  16.7812  18.2770  23.1325  27.0870

          k = 0.3089 0.3089 0.0000 (  2958 PWs)   bands (ev):

   -87.1807 -47.6352 -47.5536 -47.5528   5.9183  12.3054  12.7399  13.1777
    13.8205  14.1531  16.2910  18.5068  20.0735  22.7097  25.4187

          k = 0.3089 0.3089 0.1245 (  2953 PWs)   bands (ev):

   -87.1806 -47.6361 -47.5535 -47.5527   6.1380  12.2582  12.5762  13.1257
    13.8987  14.2012  16.6278  18.4138  18.5130  24.2807  25.8380

          k = 0.3089 0.3089 0.2489 (  2968 PWs)   bands (ev):

   -87.1806 -47.6381 -47.5533 -47.5525   6.7405  11.6474  12.2957  13.4731
    14.0077  14.2937  16.5404  17.5299  18.5102  23.8452  24.1625

          k = 0.3089 0.3089 0.3734 (  2961 PWs)   bands (ev):

   -87.1805 -47.6398 -47.5531 -47.5524   7.4444  10.7629  12.1171  14.0662
    14.1697  14.4214  15.2525  18.4835  18.6641  21.8530  23.0938

          k = 0.3089 0.4633 0.0000 (  2968 PWs)   bands (ev):

   -87.1789 -47.6331 -47.5752 -47.5511   7.7719  10.5089  13.0495  13.1673
    13.7931  13.9499  15.8454  19.2219  21.6056  21.8323  24.5362

          k = 0.3089 0.4633 0.1245 (  2955 PWs)   bands (ev):

   -87.1788 -47.6340 -47.5751 -47.5510   7.9498  10.6451  12.4350  13.5655
    13.9409  14.1327  15.9335  19.1371  19.9887  22.0159  23.1275

          k = 0.3089 0.4633 0.2489 (  2945 PWs)   bands (ev):

   -87.1787 -47.6360 -47.5749 -47.5508   8.4179  10.9312  11.8549  13.7337
    14.1468  14.7303  16.1197  17.7120  19.1954  20.8391  22.5265

          k = 0.3089 0.4633 0.3734 (  2951 PWs)   bands (ev):

   -87.1787 -47.6376 -47.5747 -47.5507   8.9133  11.1111  11.4235  14.0788
    14.5336  15.1585  15.7785  16.6252  18.6956  19.8908  23.0369

          k = 0.4633 0.4633 0.0000 (  2976 PWs)   bands (ev):

   -87.1771 -47.6310 -47.5729 -47.5728   9.2283  11.6195  12.3414  13.3274
    13.4314  13.6526  15.6723  17.8815  19.4311  22.0212  26.2914

          k = 0.4633 0.4633 0.1245 (  2960 PWs)   bands (ev):

   -87.1770 -47.6319 -47.5729 -47.5727   9.3939  11.5845  11.9042  13.2363
    14.0847  14.2205  15.7372  17.5805  19.3622  21.1680  24.3701

          k = 0.4633 0.4633 0.2489 (  2949 PWs)   bands (ev):

   -87.1769 -47.6339 -47.5727 -47.5725   9.8170  11.3978  11.4248  13.7802
    14.9832  15.0465  16.1924  16.7368  18.7820  20.2011  22.0151

          k = 0.4633 0.4633 0.3734 (  2949 PWs)   bands (ev):

   -87.1769 -47.6355 -47.5725 -47.5724  10.2240  11.1267  11.3053  14.6911
    15.2715  15.5800  16.1816  17.3651  17.5925  19.6122  20.0346

     the Fermi energy is    16.6492 ev

!    total energy              =    -344.08451407 Ry
     estimated scf accuracy    <          5.0E-09 Ry
     smearing contrib. (-TS)   =       0.00057625 Ry
     internal energy E=F+TS    =    -344.08509032 Ry

     The total energy is F=E-TS. E is the sum of the following terms:
     one-electron contribution =    -221.79878370 Ry
     hartree contribution      =     124.40589837 Ry
     xc contribution           =     -46.16759941 Ry
     ewald contribution        =    -200.52460558 Ry

     convergence has been achieved in   3 iterations

     Forces acting on atoms (cartesian axes, Ry/au):

     atom    1 type  1   force =     0.00000000    0.00000000    0.00000000
     atom    2 type  2   force =     0.00000000    0.00000000    0.00000000

     Total force =     0.000000     Total SCF correction =     0.000000


     Computing stress (Cartesian axis) and pressure

          total   stress  (Ry/bohr**3)                   (kbar)     P=       16.17
   0.00016251   0.00000000   0.00000000           23.91        0.00        0.00
   0.00000000   0.00016251   0.00000000            0.00       23.91        0.00
   0.00000000   0.00000000   0.00000473            0.00        0.00        0.70

     Energy error            =      3.1E-06 Ry
     Gradient error          =      0.0E+00 Ry/Bohr
     Cell gradient error     =      7.0E-01 kbar

     number of scf cycles    =   6
     number of bfgs steps    =   5

     enthalpy           old  =    -344.0845109216 Ry
     enthalpy           new  =    -344.0845140668 Ry

     CASE: enthalpy          _new < enthalpy          _old

     new trust radius        =       0.0007536638 bohr
     new conv_thr            =       0.0000000100 Ry

     new unit-cell volume =    152.41922 a.u.^3 (    22.58620 Ang^3 )
     density =      6.37999 g/cm^3

CELL_PARAMETERS (alat=  5.37330365)
   0.925000000   0.000000000   0.000000000
   0.000000000   0.925000000   0.000000000
   0.000000000   0.000000000   1.148238519

ATOMIC_POSITIONS (crystal)
Si               0.0000000000        0.0000000000        0.0000000000
Ni               0.5000000000        0.5000000000        0.5000000000



     Writing config-only to output data dir ./tmp/SiNi-relax.save/ :
     XML data file
     NEW-OLD atomic charge density approx. for the potential
     New effective cutoffs (rho, wfc):  439.21  109.99

     total cpu time spent up to now is       63.4 secs

     Self-consistent Calculation

     iteration #  1     ecut=   110.00 Ry     beta= 0.70
     Davidson diagonalization with overlap
     ethr =  1.00E-06,  avg # of iterations =  2.0

     Threshold (ethr) on eigenvalues was too large:
     Diagonalizing with lowered threshold

     Davidson diagonalization with overlap
     ethr =  1.71E-10,  avg # of iterations =  4.3

     total cpu time spent up to now is       67.5 secs

[...]
     celldm(4)=   0.000000  celldm(5)=   0.000000  celldm(6)=   0.000000

     crystal axes: (cart. coord. in units of alat)
               a(1) = (   0.925000   0.000000   0.000000 )  
               a(2) = (   0.000000   0.925000   0.000000 )  
               a(3) = (   0.000000   0.000000   1.148239 )  

     reciprocal axes: (cart. coord. in units 2 pi/alat)
               b(1) = (  1.081081  0.000000  0.000000 )  
               b(2) = (  0.000000  1.081081  0.000000 )  
               b(3) = (  0.000000  0.000000  0.870899 )  


     PseudoPot. # 1 for Si read from file:
     ./PSEUDO/Si.upf
     MD5 check sum: 02fab3f35e82123ef5bf1cb05d5b1a5e
     Pseudo is Norm-conserving + core correction, Zval =  4.0
     Generated using ONCVPSP code by D. R. Hamann
     Using radial grid of 1510 points,  6 beta functions with: 
                l(1) =   0
                l(2) =   0
                l(3) =   1
                l(4) =   1
                l(5) =   2
                l(6) =   2

     PseudoPot. # 2 for Ni read from file:
     ./PSEUDO/Ni.upf
     MD5 check sum: 2b0a79d100e227970886d6963e34175b
     Pseudo is Norm-conserving + core correction, Zval = 18.0
     Generated using ONCVPSP code by D. R. Hamann
     Using radial grid of 1372 points,  6 beta functions with: 
                l(1) =   0
                l(2) =   0
                l(3) =   1
                l(4) =   1
                l(5) =   2
                l(6) =   2

     atomic species   valence    mass     pseudopotential
     Si                4.00    28.08550     Si( 1.00)
     Ni               18.00    58.69340     Ni( 1.00)

     16 Sym. Ops., with inversion, found



   Cartesian axes

     site n.     atom                  positions (alat units)
         1        Si     tau(   1) = (   0.0000000   0.0000000   0.0000000  )
         2        Ni     tau(   2) = (   0.4625000   0.4625000   0.5741193  )

     number of k points=    40  Methfessel-Paxton smearing, width (Ry)=  0.0400
                       cart. coord. in units 2pi/alat
        k(    1) = (   0.0000000   0.0000000   0.0000000), wk =   0.0058309
        k(    2) = (   0.0000000   0.0000000   0.1244142), wk =   0.0116618
        k(    3) = (   0.0000000   0.0000000   0.2488283), wk =   0.0116618
        k(    4) = (   0.0000000   0.0000000   0.3732425), wk =   0.0116618
        k(    5) = (   0.0000000   0.1544402   0.0000000), wk =   0.0233236
        k(    6) = (   0.0000000   0.1544402   0.1244142), wk =   0.0466472
        k(    7) = (   0.0000000   0.1544402   0.2488283), wk =   0.0466472
        k(    8) = (   0.0000000   0.1544402   0.3732425), wk =   0.0466472
        k(    9) = (   0.0000000   0.3088803   0.0000000), wk =   0.0233236
        k(   10) = (   0.0000000   0.3088803   0.1244142), wk =   0.0466472
        k(   11) = (   0.0000000   0.3088803   0.2488283), wk =   0.0466472
        k(   12) = (   0.0000000   0.3088803   0.3732425), wk =   0.0466472
        k(   13) = (   0.0000000   0.4633205   0.0000000), wk =   0.0233236
        k(   14) = (   0.0000000   0.4633205   0.1244142), wk =   0.0466472
        k(   15) = (   0.0000000   0.4633205   0.2488283), wk =   0.0466472
        k(   16) = (   0.0000000   0.4633205   0.3732425), wk =   0.0466472
        k(   17) = (   0.1544402   0.1544402   0.0000000), wk =   0.0233236
        k(   18) = (   0.1544402   0.1544402   0.1244142), wk =   0.0466472
        k(   19) = (   0.1544402   0.1544402   0.2488283), wk =   0.0466472
        k(   20) = (   0.1544402   0.1544402   0.3732425), wk =   0.0466472
        k(   21) = (   0.1544402   0.3088803   0.0000000), wk =   0.0466472
        k(   22) = (   0.1544402   0.3088803   0.1244142), wk =   0.0932945
        k(   23) = (   0.1544402   0.3088803   0.2488283), wk =   0.0932945
        k(   24) = (   0.1544402   0.3088803   0.3732425), wk =   0.0932945
        k(   25) = (   0.1544402   0.4633205   0.0000000), wk =   0.0466472
        k(   26) = (   0.1544402   0.4633205   0.1244142), wk =   0.0932945
        k(   27) = (   0.1544402   0.4633205   0.2488283), wk =   0.0932945
        k(   28) = (   0.1544402   0.4633205   0.3732425), wk =   0.0932945
        k(   29) = (   0.3088803   0.3088803   0.0000000), wk =   0.0233236
        k(   30) = (   0.3088803   0.3088803   0.1244142), wk =   0.0466472
        k(   31) = (   0.3088803   0.3088803   0.2488283), wk =   0.0466472
        k(   32) = (   0.3088803   0.3088803   0.3732425), wk =   0.0466472
        k(   33) = (   0.3088803   0.4633205   0.0000000), wk =   0.0466472
        k(   34) = (   0.3088803   0.4633205   0.1244142), wk =   0.0932945
        k(   35) = (   0.3088803   0.4633205   0.2488283), wk =   0.0932945
        k(   36) = (   0.3088803   0.4633205   0.3732425), wk =   0.0932945
        k(   37) = (   0.4633205   0.4633205   0.0000000), wk =   0.0233236
        k(   38) = (   0.4633205   0.4633205   0.1244142), wk =   0.0466472
        k(   39) = (   0.4633205   0.4633205   0.2488283), wk =   0.0466472
        k(   40) = (   0.4633205   0.4633205   0.3732425), wk =   0.0466472

     Dense  grid:    23829 G-vectors     FFT dimensions: (  36,  36,  45)

     Estimated max dynamical RAM per process >      54.00 MB

     Initial potential from superposition of free atoms

     starting charge      21.9992, renormalised to      22.0000
     Starting wfcs are   14 randomized atomic wfcs +    1 random wfcs

     total cpu time spent up to now is       73.5 secs

     Self-consistent Calculation

     iteration #  1     ecut=   110.00 Ry     beta= 0.70
     Davidson diagonalization with overlap
     ethr =  1.00E-06,  avg # of iterations = 11.9

     total cpu time spent up to now is       78.3 secs

     total energy              =    -343.95629251 Ry
     estimated scf accuracy    <       0.20184148 Ry

     iteration #  2     ecut=   110.00 Ry     beta= 0.70
     Davidson diagonalization with overlap
     ethr =  9.17E-04,  avg # of iterations =  2.7

     total cpu time spent up to now is       80.5 secs

     total energy              =    -343.72084367 Ry
     estimated scf accuracy    <       2.87469057 Ry

     iteration #  3     ecut=   110.00 Ry     beta= 0.70
     Davidson diagonalization with overlap
     ethr =  9.17E-04,  avg # of iterations =  2.5

     total cpu time spent up to now is       82.6 secs

     total energy              =    -344.08364717 Ry
     estimated scf accuracy    <       0.00675875 Ry

     iteration #  4     ecut=   110.00 Ry     beta= 0.70
     Davidson diagonalization with overlap
     ethr =  3.07E-05,  avg # of iterations =  1.9

     total cpu time spent up to now is       84.2 secs

     total energy              =    -344.08443639 Ry
     estimated scf accuracy    <       0.00067299 Ry

     iteration #  5     ecut=   110.00 Ry     beta= 0.70
     Davidson diagonalization with overlap
     ethr =  3.06E-06,  avg # of iterations =  1.7

     total cpu time spent up to now is       85.8 secs

     total energy              =    -344.08450643 Ry
     estimated scf accuracy    <       0.00003066 Ry

     iteration #  6     ecut=   110.00 Ry     beta= 0.70
     Davidson diagonalization with overlap
     ethr =  1.39E-07,  avg # of iterations =  2.2

     total cpu time spent up to now is       87.6 secs

     total energy              =    -344.08451428 Ry
     estimated scf accuracy    <       0.00000729 Ry

     iteration #  7     ecut=   110.00 Ry     beta= 0.70
     Davidson diagonalization with overlap
     ethr =  3.31E-08,  avg # of iterations =  1.5

     total cpu time spent up to now is       89.1 secs

     total energy              =    -344.08451490 Ry
     estimated scf accuracy    <       0.00000032 Ry

     iteration #  8     ecut=   110.00 Ry     beta= 0.70
     Davidson diagonalization with overlap
     ethr =  1.45E-09,  avg # of iterations =  2.8

     total cpu time spent up to now is       90.9 secs

     total energy              =    -344.08451499 Ry
     estimated scf accuracy    <       0.00000003 Ry

     iteration #  9     ecut=   110.00 Ry     beta= 0.70
     Davidson diagonalization with overlap
     ethr =  1.34E-10,  avg # of iterations =  1.3

     total cpu time spent up to now is       92.5 secs

     End of self-consistent calculation

          k = 0.0000 0.0000 0.0000 (  3009 PWs)   bands (ev):

   -87.1925 -47.6478 -47.5219 -47.5219   2.5643  12.3726  12.8100  14.5105
    14.5105  15.0638  15.1823  21.1755  21.9249  21.9249  24.1208

          k = 0.0000 0.0000 0.1244 (  2981 PWs)   bands (ev):

   -87.1924 -47.6488 -47.5218 -47.5218   2.8314  11.6273  12.8576  14.4235
    14.4235  14.6721  15.0688  22.2942  22.2942  22.8500  24.0140

          k = 0.0000 0.0000 0.2488 (  2969 PWs)   bands (ev):

   -87.1924 -47.6511 -47.5217 -47.5217   3.5930   9.7293  12.9677  14.2416
    14.2416  14.4176  15.0801  23.2889  23.2889  23.7655  25.9549

          k = 0.0000 0.0000 0.3732 (  2972 PWs)   bands (ev):

   -87.1923 -47.6529 -47.5216 -47.5216   4.5971   7.9442  13.0593  14.1072
    14.1072  14.4307  15.0891  23.5579  24.5162  24.5162  28.2162

          k = 0.0000 0.1544 0.0000 (  2973 PWs)   bands (ev):

   -87.1915 -47.6467 -47.5343 -47.5209   3.0003  12.5191  12.7966  13.6959
    14.5436  14.8731  16.3428  18.8197  21.2855  22.4384  25.9677

          k = 0.0000 0.1544 0.1244 (  2980 PWs)   bands (ev):

   -87.1914 -47.6477 -47.5342 -47.5208   3.2619  11.8413  12.8361  13.6842
    14.4610  14.8848  15.5613  19.1078  22.7793  23.0667  25.9334

          k = 0.0000 0.1544 0.2488 (  2974 PWs)   bands (ev):

   -87.1913 -47.6499 -47.5341 -47.5207   4.0047  10.0678  12.9888  13.7301
    14.2907  14.8148  14.9061  19.8222  23.6905  25.3162  26.5191

          k = 0.0000 0.1544 0.3732 (  2977 PWs)   bands (ev):

   -87.1913 -47.6516 -47.5340 -47.5206   4.9691   8.3709  13.1472  13.7405
    14.1651  14.5176  14.9212  20.5618  24.7665  24.8042  26.2451

          k = 0.0000 0.3089 0.0000 (  2959 PWs)   bands (ev):

   -87.1892 -47.6441 -47.5622 -47.5186   4.2841  11.7373  12.9517  12.9858
    14.4909  14.6187  16.2933  18.1695  21.5941  23.8274  26.8668

          k = 0.0000 0.3089 0.1244 (  2960 PWs)   bands (ev):

   -87.1892 -47.6450 -47.5621 -47.5186   4.5273  11.8434  12.2597  13.2795
    14.4902  14.5684  16.2555  17.0356  23.4674  24.0908  25.0604

          k = 0.0000 0.3089 0.2488 (  2967 PWs)   bands (ev):

   -87.1891 -47.6471 -47.5619 -47.5184   5.2067  10.9211  12.1847  13.3900
    14.3977  14.5526  15.2265  17.2086  22.4624  24.7616  26.6160

          k = 0.0000 0.3089 0.3732 (  2974 PWs)   bands (ev):

   -87.1890 -47.6488 -47.5617 -47.5183   6.0421   9.5799  12.5153  13.3383
    14.2974  14.5715  14.6687  17.8568  20.8635  25.4445  27.4854

          k = 0.0000 0.4633 0.0000 (  2978 PWs)   bands (ev):

   -87.1874 -47.6420 -47.5844 -47.5168   6.3146   9.1488  12.5616  13.2717
    14.2189  14.6797  15.9786  20.4849  22.0070  23.3650  25.7927

          k = 0.0000 0.4633 0.1244 (  2969 PWs)   bands (ev):

   -87.1873 -47.6429 -47.5843 -47.5168   6.5120   9.3422  12.4215  13.2808
    14.2367  14.6240  15.8823  18.6579  21.3113  24.7401  25.9034

          k = 0.0000 0.4633 0.2488 (  2966 PWs)   bands (ev):

   -87.1872 -47.6449 -47.5841 -47.5166   7.0291   9.8812  12.0087  13.2163
    14.2774  14.5027  15.4019  17.1682  19.2865  26.1211  27.4563

          k = 0.0000 0.4633 0.3732 (  2979 PWs)   bands (ev):

   -87.1872 -47.6466 -47.5839 -47.5165   7.5650  10.6007  11.3936  12.9534
    14.3117  14.4079  14.7994  16.7878  18.0762  26.2676  29.0389

          k = 0.1544 0.1544 0.0000 (  2976 PWs)   bands (ev):

   -87.1905 -47.6455 -47.5335 -47.5330   3.4316  12.6465  12.8411  13.5310
    14.2981  14.6459  17.1243  18.6397  20.0400  21.4872  28.9398

          k = 0.1544 0.1544 0.1244 (  2977 PWs)   bands (ev):

   -87.1904 -47.6465 -47.5334 -47.5329   3.6877  12.0248  12.8948  13.5827
    14.1576  14.6619  16.1600  18.9403  20.2941  23.4189  28.5015

          k = 0.1544 0.1544 0.2488 (  2969 PWs)   bands (ev):

   -87.1903 -47.6487 -47.5333 -47.5328   4.4119  10.3878  13.0404  13.8054
    13.8516  14.6902  15.1991  19.6728  20.9658  26.7582  26.7701

          k = 0.1544 0.1544 0.3732 (  2966 PWs)   bands (ev):

   -87.1903 -47.6504 -47.5332 -47.5327   5.3383   8.7826  13.2403  13.5486
    14.1108  14.6187  14.7626  20.4037  21.7661  25.3229  25.4673

          k = 0.1544 0.3089 0.0000 (  2964 PWs)   bands (ev):

   -87.1882 -47.6429 -47.5610 -47.5309   4.6999  11.9596  13.0448  13.0618
    14.2808  14.3030  16.4294  18.7536  20.6845  22.0213  27.1348

          k = 0.1544 0.3089 0.1244 (  2971 PWs)   bands (ev):

   -87.1882 -47.6439 -47.5609 -47.5308   4.9376  12.0592  12.3795  13.3894
    14.1430  14.3504  16.5801  17.3823  20.9039  24.1278  25.3299

          k = 0.1544 0.3089 0.2488 (  2970 PWs)   bands (ev):

   -87.1881 -47.6460 -47.5607 -47.5307   5.5992  11.1797  12.2889  13.5696
    13.9988  14.4030  15.6908  17.3538  21.4276  22.9291  27.3818

          k = 0.1544 0.3089 0.3732 (  2967 PWs)   bands (ev):

   -87.1880 -47.6476 -47.5605 -47.5305   6.4031   9.9262  12.4750  13.5244
    14.2413  14.4400  14.8543  18.0289  21.2777  21.9887  26.6820

          k = 0.1544 0.4633 0.0000 (  2967 PWs)   bands (ev):

   -87.1864 -47.6408 -47.5832 -47.5290   6.6930   9.5075  12.7036  13.4243
    14.0084  14.3656  15.9579  20.9091  21.8649  23.3035  23.7513

          k = 0.1544 0.4633 0.1244 (  2973 PWs)   bands (ev):

   -87.1863 -47.6417 -47.5831 -47.5289   6.8853   9.6931  12.4766  13.4847
    14.1199  14.2946  15.9319  19.0415  21.8053  22.4358  25.1517

          k = 0.1544 0.4633 0.2488 (  2971 PWs)   bands (ev):

   -87.1862 -47.6438 -47.5828 -47.5288   7.3903  10.1947  11.9830  13.4455
    14.1750  14.4155  15.6878  17.3062  19.6453  22.7652  26.4147

          k = 0.1544 0.4633 0.3732 (  2974 PWs)   bands (ev):

   -87.1862 -47.6454 -47.5826 -47.5286   7.9174  10.7926  11.4348  13.1725
    14.3956  14.6205  14.9934  16.7738  18.2710  23.1260  27.0804

          k = 0.3089 0.3089 0.0000 (  2962 PWs)   bands (ev):

   -87.1859 -47.6403 -47.5587 -47.5579   5.9147  12.3019  12.7363  13.1719
    13.8155  14.1488  16.2854  18.5011  20.0636  22.6993  25.4126

          k = 0.3089 0.3089 0.1244 (  2965 PWs)   bands (ev):

   -87.1859 -47.6413 -47.5586 -47.5579   6.1341  12.2541  12.5725  13.1204
    13.8938  14.1969  16.6220  18.4050  18.5071  24.2720  25.8295

          k = 0.3089 0.3089 0.2488 (  2975 PWs)   bands (ev):

   -87.1858 -47.6433 -47.5584 -47.5577   6.7361  11.6428  12.2919  13.4682
    14.0029  14.2893  16.5331  17.5236  18.5038  23.8380  24.1553

          k = 0.3089 0.3089 0.3732 (  2971 PWs)   bands (ev):

   -87.1857 -47.6449 -47.5583 -47.5576   7.4392  10.7588  12.1133  14.0614
    14.1650  14.4164  15.2463  18.4768  18.6567  21.8475  23.0880

          k = 0.3089 0.4633 0.0000 (  2980 PWs)   bands (ev):

   -87.1841 -47.6383 -47.5803 -47.5562   7.7684  10.5054  13.0441  13.1635
    13.7880  13.9457  15.8400  19.2161  21.5957  21.8271  24.5254

          k = 0.3089 0.4633 0.1244 (  2966 PWs)   bands (ev):

   -87.1841 -47.6392 -47.5802 -47.5561   7.9462  10.6414  12.4306  13.5607
    13.9360  14.1281  15.9280  19.1307  19.9803  22.0106  23.1181

          k = 0.3089 0.4633 0.2488 (  2961 PWs)   bands (ev):

   -87.1840 -47.6412 -47.5800 -47.5560   8.4139  10.9272  11.8508  13.7288
    14.1422  14.7253  16.1139  17.7046  19.1891  20.8317  22.5204

          k = 0.3089 0.4633 0.3732 (  2970 PWs)   bands (ev):

   -87.1839 -47.6428 -47.5798 -47.5558   8.9085  11.1070  11.4198  14.0742
    14.5280  15.1535  15.7726  16.6183  18.6900  19.8836  23.0301

          k = 0.4633 0.4633 0.0000 (  2980 PWs)   bands (ev):

   -87.1823 -47.6362 -47.5781 -47.5779   9.2253  11.6159  12.3377  13.3222
    13.4263  13.6486  15.6672  17.8748  19.4259  22.0114  26.2803

          k = 0.4633 0.4633 0.1244 (  2971 PWs)   bands (ev):

   -87.1823 -47.6371 -47.5780 -47.5778   9.3907  11.5808  11.9004  13.2317
    14.0797  14.2158  15.7320  17.5736  19.3568  21.1597  24.3605

          k = 0.4633 0.4633 0.2488 (  2957 PWs)   bands (ev):

   -87.1822 -47.6391 -47.5778 -47.5777   9.8134  11.3940  11.4211  13.7753
    14.9782  15.0414  16.1867  16.7298  18.7760  20.1942  22.0073

          k = 0.4633 0.4633 0.3732 (  2961 PWs)   bands (ev):

   -87.1821 -47.6406 -47.5777 -47.5775  10.2199  11.1229  11.3019  14.6855
    15.2665  15.5735  16.1759  17.3594  17.5861  19.6056  20.0274

     the Fermi energy is    16.6424 ev

!    total energy              =    -344.08451499 Ry
     estimated scf accuracy    <          4.3E-09 Ry
     smearing contrib. (-TS)   =       0.00057305 Ry
     internal energy E=F+TS    =    -344.08508804 Ry

     The total energy is F=E-TS. E is the sum of the following terms:
     one-electron contribution =    -221.84252477 Ry
     hartree contribution      =     124.42405646 Ry
     xc contribution           =     -46.16730524 Ry
     ewald contribution        =    -200.49931449 Ry

     convergence has been achieved in   9 iterations

     Forces acting on atoms (cartesian axes, Ry/au):

     atom    1 type  1   force =     0.00000000    0.00000000    0.00000000
     atom    2 type  2   force =     0.00000000    0.00000000    0.00000000

     Total force =     0.000000     Total SCF correction =     0.000000


     Computing stress (Cartesian axis) and pressure

          total   stress  (Ry/bohr**3)                   (kbar)     P=       16.41
   0.00016481   0.00000000   0.00000000           24.24        0.00        0.00
   0.00000000   0.00016481   0.00000000            0.00       24.24        0.00
   0.00000000   0.00000000   0.00000514            0.00        0.00        0.76


     Writing all to output data dir ./tmp/SiNi-relax.save/ :
     XML data file, charge density, pseudopotentials, collected wavefunctions

     init_run     :      2.52s CPU      2.64s WALL (       2 calls)
     electrons    :     76.93s CPU     79.94s WALL (       8 calls)
     update_pot   :      0.10s CPU      0.12s WALL (       6 calls)
     forces       :      2.26s CPU      2.30s WALL (       8 calls)
     stress       :      8.67s CPU      8.80s WALL (       8 calls)

     Called by init_run:
     wfcinit      :      1.65s CPU      1.74s WALL (       2 calls)
     potinit      :      0.22s CPU      0.24s WALL (       2 calls)
     hinit0       :      0.61s CPU      0.62s WALL (       2 calls)

     Called by electrons:
     c_bands      :     68.53s CPU     71.07s WALL (      41 calls)
     sum_band     :      7.88s CPU      8.31s WALL (      41 calls)
     v_of_rho     :      0.57s CPU      0.61s WALL (      42 calls)
     mix_rho      :      0.05s CPU      0.05s WALL (      41 calls)

     Called by c_bands:
     init_us_2    :      2.27s CPU      2.38s WALL (    4000 calls)
     cegterg      :     64.96s CPU     67.42s WALL (    1640 calls)

     Called by *egterg:
     cdiaghg      :      0.78s CPU      0.84s WALL (    5477 calls)
     h_psi        :     48.94s CPU     51.19s WALL (    6077 calls)
     g_psi        :      0.34s CPU      0.37s WALL (    4357 calls)

     Called by h_psi:
     h_psi:calbec :      6.08s CPU      6.26s WALL (    6077 calls)
     vloc_psi     :     36.86s CPU     38.85s WALL (    6077 calls)
                                        0.00s GPU  (    6077 calls)
     add_vuspsi   :      5.70s CPU      5.81s WALL (    6077 calls)

     General routines
     calbec       :     13.36s CPU     13.67s WALL (   11517 calls)
     fft          :      0.28s CPU      0.29s WALL (     625 calls)
     ffts         :      0.02s CPU      0.02s WALL (      41 calls)
     fftw         :     37.49s CPU     40.02s WALL (  157052 calls)


     PWSCF        :   1m30.58s CPU   1m33.92s WALL


   This run was terminated on:  21:30:51   7Jan2026            

=------------------------------------------------------------------------------=
   JOB DONE.
=------------------------------------------------------------------------------=
