
     Program PWSCF v.7.5 starts on  8Jan2026 at 20:37: 8 

     This program is part of the open-source Quantum ESPRESSO suite
     for quantum simulation of materials; please cite
         "P. Giannozzi et al., J. Phys.:Condens. Matter 21 395502 (2009);
         "P. Giannozzi et al., J. Phys.:Condens. Matter 29 465901 (2017);
         "P. Giannozzi et al., J. Chem. Phys. 152 154105 (2020);
          URL http://www.quantum-espresso.org", 
     in publications or presentations arising from this work. More details at
     http://www.quantum-espresso.org/quote

     Serial version
     665 MiB available memory on the printing compute node when the environment starts

     Waiting for input...
     Reading input from standard input

     Current dimensions of program PWSCF are:
     Max number of different atomic species (ntypx) = 10
     Max number of k-points (npk) =  40000
     Max angular momentum in pseudopotentials (lmaxx) =  4
     Message from routine setup:
     using ibrav=0 with symmetry is DISCOURAGED, use correct ibrav instead


     G-vector sticks info
     --------------------
     sticks:   dense  smooth     PW     G-vecs:    dense   smooth      PW
     Sum         853     853    261                21057    21057    3521

     Using Slab Decomposition



     bravais-lattice index     =            0
     lattice parameter (alat)  =       5.3818  a.u.
     unit-cell volume          =     155.7195 (a.u.)^3
     number of atoms/cell      =            2
     number of atomic types    =            2
     number of electrons       =        22.00
     number of Kohn-Sham states=           15
     kinetic-energy cutoff     =     100.0000  Ry
     charge density cutoff     =     400.0000  Ry
     scf convergence threshold =      1.0E-06
     mixing beta               =       0.7000
     number of iterations used =            8  plain     mixing
     energy convergence thresh.=      1.0E-04
     force convergence thresh. =      1.0E-03
     press convergence thresh. =      5.0E-01
     Exchange-correlation= PBE
                           (   1   4   3   4   0   0   0)
     nstep                     =           50


     celldm(1)=   5.381766  celldm(2)=   0.000000  celldm(3)=   0.000000
     celldm(4)=   0.000000  celldm(5)=   0.000000  celldm(6)=   0.000000

     crystal axes: (cart. coord. in units of alat)
               a(1) = (   0.960000   0.000000   0.000000 )  
               a(2) = (   0.000000   0.960000   0.000000 )  
               a(3) = (   0.000000   0.000000   1.083992 )  

     reciprocal axes: (cart. coord. in units 2 pi/alat)
               b(1) = (  1.041667  0.000000  0.000000 )  
               b(2) = (  0.000000  1.041667  0.000000 )  
               b(3) = (  0.000000  0.000000  0.922516 )  


     PseudoPot. # 1 for Si read from file:
     ./PSEUDO/Si.upf
     MD5 check sum: 02fab3f35e82123ef5bf1cb05d5b1a5e
     Pseudo is Norm-conserving + core correction, Zval =  4.0
     Generated using ONCVPSP code by D. R. Hamann
     Using radial grid of 1510 points,  6 beta functions with: 
                l(1) =   0
                l(2) =   0
                l(3) =   1
                l(4) =   1
                l(5) =   2
                l(6) =   2

     PseudoPot. # 2 for Ni read from file:
     ./PSEUDO/Ni.upf
     MD5 check sum: 2b0a79d100e227970886d6963e34175b
     Pseudo is Norm-conserving + core correction, Zval = 18.0
     Generated using ONCVPSP code by D. R. Hamann
     Using radial grid of 1372 points,  6 beta functions with: 
                l(1) =   0
                l(2) =   0
                l(3) =   1
                l(4) =   1
                l(5) =   2
                l(6) =   2

     atomic species   valence    mass     pseudopotential
     Si                4.00    28.08550     Si( 1.00)
     Ni               18.00    58.69340     Ni( 1.00)

     16 Sym. Ops., with inversion, found



   Cartesian axes

     site n.     atom                  positions (alat units)
         1        Si     tau(   1) = (   0.0000000   0.0000000   0.0000000  )
         2        Ni     tau(   2) = (   0.4800000   0.4800000   0.5419958  )

     number of k points=    40  Methfessel-Paxton smearing, width (Ry)=  0.0400
                       cart. coord. in units 2pi/alat
        k(    1) = (   0.0000000   0.0000000   0.0000000), wk =   0.0092593
        k(    2) = (   0.0000000   0.0000000   0.1537527), wk =   0.0185185
        k(    3) = (   0.0000000   0.0000000   0.3075055), wk =   0.0185185
        k(    4) = (   0.0000000   0.0000000  -0.4612582), wk =   0.0092593
        k(    5) = (   0.0000000   0.1736111   0.0000000), wk =   0.0370370
        k(    6) = (   0.0000000   0.1736111   0.1537527), wk =   0.0740741
        k(    7) = (   0.0000000   0.1736111   0.3075055), wk =   0.0740741
        k(    8) = (   0.0000000   0.1736111  -0.4612582), wk =   0.0370370
        k(    9) = (   0.0000000   0.3472222   0.0000000), wk =   0.0370370
        k(   10) = (   0.0000000   0.3472222   0.1537527), wk =   0.0740741
        k(   11) = (   0.0000000   0.3472222   0.3075055), wk =   0.0740741
        k(   12) = (   0.0000000   0.3472222  -0.4612582), wk =   0.0370370
        k(   13) = (   0.0000000  -0.5208333   0.0000000), wk =   0.0185185
        k(   14) = (   0.0000000  -0.5208333   0.1537527), wk =   0.0370370
        k(   15) = (   0.0000000  -0.5208333   0.3075055), wk =   0.0370370
        k(   16) = (   0.0000000  -0.5208333  -0.4612582), wk =   0.0185185
        k(   17) = (   0.1736111   0.1736111   0.0000000), wk =   0.0370370
        k(   18) = (   0.1736111   0.1736111   0.1537527), wk =   0.0740741
        k(   19) = (   0.1736111   0.1736111   0.3075055), wk =   0.0740741
        k(   20) = (   0.1736111   0.1736111  -0.4612582), wk =   0.0370370
        k(   21) = (   0.1736111   0.3472222   0.0000000), wk =   0.0740741
        k(   22) = (   0.1736111   0.3472222   0.1537527), wk =   0.1481481
        k(   23) = (   0.1736111   0.3472222   0.3075055), wk =   0.1481481
        k(   24) = (   0.1736111   0.3472222  -0.4612582), wk =   0.0740741
        k(   25) = (   0.1736111  -0.5208333   0.0000000), wk =   0.0370370
        k(   26) = (   0.1736111  -0.5208333   0.1537527), wk =   0.0740741
        k(   27) = (   0.1736111  -0.5208333   0.3075055), wk =   0.0740741
        k(   28) = (   0.1736111  -0.5208333  -0.4612582), wk =   0.0370370
        k(   29) = (   0.3472222   0.3472222   0.0000000), wk =   0.0370370
        k(   30) = (   0.3472222   0.3472222   0.1537527), wk =   0.0740741
        k(   31) = (   0.3472222   0.3472222   0.3075055), wk =   0.0740741
        k(   32) = (   0.3472222   0.3472222  -0.4612582), wk =   0.0370370
        k(   33) = (   0.3472222  -0.5208333   0.0000000), wk =   0.0370370
        k(   34) = (   0.3472222  -0.5208333   0.1537527), wk =   0.0740741
        k(   35) = (   0.3472222  -0.5208333   0.3075055), wk =   0.0740741
        k(   36) = (   0.3472222  -0.5208333  -0.4612582), wk =   0.0370370
        k(   37) = (  -0.5208333  -0.5208333   0.0000000), wk =   0.0092593
        k(   38) = (  -0.5208333  -0.5208333   0.1537527), wk =   0.0185185
        k(   39) = (  -0.5208333  -0.5208333   0.3075055), wk =   0.0185185
        k(   40) = (  -0.5208333  -0.5208333  -0.4612582), wk =   0.0092593

     Dense  grid:    21057 G-vectors     FFT dimensions: (  36,  36,  40)

     Estimated max dynamical RAM per process >      47.96 MB

     Initial potential from superposition of free atoms

     starting charge      21.9992, renormalised to      22.0000
     Starting wfcs are   14 randomized atomic wfcs +    1 random wfcs

     total cpu time spent up to now is        1.9 secs

     Self-consistent Calculation

     iteration #  1     ecut=   100.00 Ry     beta= 0.70
     Davidson diagonalization with overlap
     ethr =  1.00E-02,  avg # of iterations =  3.8

     total cpu time spent up to now is        3.7 secs

     total energy              =    -343.93865356 Ry
     estimated scf accuracy    <       0.22436326 Ry

     iteration #  2     ecut=   100.00 Ry     beta= 0.70
     Davidson diagonalization with overlap
     ethr =  1.02E-03,  avg # of iterations =  2.9

     total cpu time spent up to now is        5.8 secs

     total energy              =    -343.67459888 Ry
     estimated scf accuracy    <       3.30297978 Ry

     iteration #  3     ecut=   100.00 Ry     beta= 0.70
     Davidson diagonalization with overlap
     ethr =  1.02E-03,  avg # of iterations =  2.7

     total cpu time spent up to now is        7.7 secs

     total energy              =    -344.08293114 Ry
     estimated scf accuracy    <       0.00805947 Ry

     iteration #  4     ecut=   100.00 Ry     beta= 0.70
     Davidson diagonalization with overlap
     ethr =  3.66E-05,  avg # of iterations =  2.6

     total cpu time spent up to now is        9.2 secs

     total energy              =    -344.08430485 Ry
     estimated scf accuracy    <       0.00050387 Ry

     iteration #  5     ecut=   100.00 Ry     beta= 0.70
     Davidson diagonalization with overlap
     ethr =  2.29E-06,  avg # of iterations =  2.8

     total cpu time spent up to now is       10.8 secs

     total energy              =    -344.08429423 Ry
     estimated scf accuracy    <       0.00015921 Ry

     iteration #  6     ecut=   100.00 Ry     beta= 0.70
     Davidson diagonalization with overlap
     ethr =  7.24E-07,  avg # of iterations =  2.2

     total cpu time spent up to now is       12.3 secs

     total energy              =    -344.08432639 Ry
     estimated scf accuracy    <       0.00002415 Ry

     iteration #  7     ecut=   100.00 Ry     beta= 0.70
     Davidson diagonalization with overlap
     ethr =  1.10E-07,  avg # of iterations =  1.1

     total cpu time spent up to now is       13.7 secs

     total energy              =    -344.08432747 Ry
     estimated scf accuracy    <       0.00000210 Ry

     iteration #  8     ecut=   100.00 Ry     beta= 0.70
     Davidson diagonalization with overlap
     ethr =  9.53E-09,  avg # of iterations =  2.2

     total cpu time spent up to now is       15.2 secs

     End of self-consistent calculation

          k = 0.0000 0.0000 0.0000 (  2623 PWs)   bands (ev):

   -87.5447 -47.9634 -47.9029 -47.9029   2.3969  12.2686  12.4753  14.1432
    14.1432  14.4798  16.4024  20.2555  20.2555  22.0226  23.4705

          k = 0.0000 0.0000 0.1538 (  2623 PWs)   bands (ev):

   -87.5446 -47.9660 -47.9028 -47.9028   2.8138  11.5514  12.5658  13.9654
    13.9654  14.4927  15.1029  20.8495  20.8495  23.3568  24.4948

          k = 0.0000 0.0000 0.3075 (  2646 PWs)   bands (ev):

   -87.5443 -47.9711 -47.9024 -47.9024   3.9951   9.2503  12.7558  13.6561
    13.6561  14.5185  14.5273  22.3658  22.3658  23.1049  26.9417

          k = 0.0000 0.0000-0.4613 (  2634 PWs)   bands (ev):

   -87.5442 -47.9737 -47.9022 -47.9022   5.1783   7.4994  12.8557  13.5186
    13.5186  14.5244  14.5315  22.9657  23.7606  23.7606  26.2781

          k = 0.0000 0.1736 0.0000 (  2643 PWs)   bands (ev):

   -87.5439 -47.9624 -47.9136 -47.9021   2.9444  12.2154  12.4977  13.5734
    14.1800  14.2204  17.2455  17.4397  20.9600  22.1317  25.0818

          k = 0.0000 0.1736 0.1538 (  2637 PWs)   bands (ev):

   -87.5438 -47.9650 -47.9134 -47.9019   3.3514  11.7902  12.4067  13.4086
    14.0065  14.2605  15.8294  17.7325  21.4895  24.3242  25.6461

          k = 0.0000 0.1736 0.3075 (  2624 PWs)   bands (ev):

   -87.5435 -47.9701 -47.9130 -47.9016   4.4961   9.6828  12.6854  13.2911
    13.7277  14.3049  14.7402  18.8418  22.8269  23.9589  25.7547

          k = 0.0000 0.1736-0.4613 (  2630 PWs)   bands (ev):

   -87.5434 -47.9726 -47.9128 -47.9014   5.6060   8.0540  12.9621  13.0958
    13.6023  14.3260  14.5536  19.7272  22.7253  23.9375  25.5238

          k = 0.0000 0.3472 0.0000 (  2634 PWs)   bands (ev):

   -87.5424 -47.9606 -47.9348 -47.9004   4.5394  10.3417  12.8392  12.8947
    13.7832  14.2545  15.4529  19.5759  22.3384  22.7652  26.0404

          k = 0.0000 0.3472 0.1538 (  2620 PWs)   bands (ev):

   -87.5422 -47.9630 -47.9346 -47.9002   4.9105  10.5853  12.2489  13.0904
    13.8175  14.1333  15.5141  17.4329  22.9922  23.1244  25.3430

          k = 0.0000 0.3472 0.3075 (  2618 PWs)   bands (ev):

   -87.5420 -47.9680 -47.9341 -47.8998   5.9204  10.6725  11.3937  13.1123
    13.8506  13.9450  14.9841  16.6402  20.2323  23.9271  26.7663

          k = 0.0000 0.3472-0.4613 (  2624 PWs)   bands (ev):

   -87.5419 -47.9705 -47.9339 -47.8997   6.7898   9.6087  11.7592  12.9651
    13.7747  13.9513  14.6153  17.1798  18.6849  24.4130  27.3216

          k = 0.0000-0.5208 0.0000 (  2628 PWs)   bands (ev):

   -87.5416 -47.9596 -47.9455 -47.8995   6.5603   7.7867  12.6423  13.0243
    13.5927  14.2922  15.3927  22.0754  22.4695  22.8145  24.6856

          k = 0.0000-0.5208 0.1538 (  2634 PWs)   bands (ev):

   -87.5415 -47.9621 -47.9452 -47.8993   6.8132   8.2047  12.4229  13.0335
    13.6382  14.1787  15.3150  19.1546  20.3974  24.7023  25.5175

          k = 0.0000-0.5208 0.3075 (  2630 PWs)   bands (ev):

   -87.5412 -47.9670 -47.9446 -47.8990   7.4446   9.3648  11.8125  12.8176
    13.7312  13.9648  14.9712  17.0915  17.7756  24.7405  27.7677

          k = 0.0000-0.5208-0.4613 (  2640 PWs)   bands (ev):

   -87.5411 -47.9694 -47.9444 -47.8988   7.8767  10.4822  11.3555  12.1299
    13.7789  13.8636  14.6505  16.4054  16.9851  24.7626  30.1090

          k = 0.1736 0.1736 0.0000 (  2623 PWs)   bands (ev):

   -87.5431 -47.9615 -47.9129 -47.9125   3.4831  12.3734  12.4036  13.4778
    13.9115  13.9256  17.3013  18.2700  18.3753  22.4339  28.4277

          k = 0.1736 0.1736 0.1538 (  2621 PWs)   bands (ev):

   -87.5430 -47.9640 -47.9127 -47.9123   3.8802  11.9646  12.4487  13.3178
    13.6945  13.9667  16.4629  17.8065  18.7328  25.3728  27.5989

          k = 0.1736 0.1736 0.3075 (  2630 PWs)   bands (ev):

   -87.5428 -47.9691 -47.9123 -47.9119   4.9890  10.0844  12.6161  13.3111
    13.5397  14.0489  15.0419  18.9660  19.6540  24.7962  24.9484

          k = 0.1736 0.1736-0.4613 (  2626 PWs)   bands (ev):

   -87.5426 -47.9716 -47.9120 -47.9117   6.0334   8.5769  12.7232  13.1265
    13.7772  14.0839  14.6061  19.8336  20.4678  23.3161  23.3990

          k = 0.1736 0.3472 0.0000 (  2636 PWs)   bands (ev):

   -87.5416 -47.9596 -47.9338 -47.9109   5.0462  10.7029  12.7978  13.0104
    13.6020  13.9369  15.5490  19.3992  20.1548  22.9675  25.8769

          k = 0.1736 0.3472 0.1538 (  2631 PWs)   bands (ev):

   -87.5415 -47.9621 -47.9336 -47.9107   5.4077  10.9233  12.2665  13.2312
    13.6011  13.8419  15.7460  17.8726  19.6903  23.7180  25.3020

          k = 0.1736 0.3472 0.3075 (  2626 PWs)   bands (ev):

   -87.5412 -47.9670 -47.9331 -47.9103   6.3866  10.9973  11.4266  13.2731
    13.6474  13.9319  15.4431  16.6982  20.3657  20.7712  26.0849

          k = 0.1736 0.3472-0.4613 (  2632 PWs)   bands (ev):

   -87.5411 -47.9695 -47.9329 -47.9101   7.2178   9.9752  11.6503  13.1782
    13.9496  14.0734  14.6801  17.2291  19.1287  21.0226  24.9556

          k = 0.1736-0.5208 0.0000 (  2642 PWs)   bands (ev):

   -87.5408 -47.9587 -47.9444 -47.9099   6.9647   8.3224  12.7869  13.1930
    13.2765  13.9942  15.3550  20.7674  22.1149  22.9742  23.7386

          k = 0.1736-0.5208 0.1538 (  2632 PWs)   bands (ev):

   -87.5407 -47.9611 -47.9441 -47.9097   7.2226   8.7075  12.3286  13.2541
    13.6664  13.8451  15.3478  19.4573  21.0207  21.0913  23.4382

          k = 0.1736-0.5208 0.3075 (  2624 PWs)   bands (ev):

   -87.5405 -47.9660 -47.9436 -47.9094   7.8721   9.7214  11.6256  13.0905
    13.8435  14.1341  15.1699  17.1374  18.1414  21.5035  24.5300

          k = 0.1736-0.5208-0.4613 (  2628 PWs)   bands (ev):

   -87.5403 -47.9684 -47.9433 -47.9092   8.3275  10.5240  11.1807  12.7005
    14.2231  14.3700  14.6732  16.2505  17.0553  21.8492  25.2892

          k = 0.3472 0.3472 0.0000 (  2630 PWs)   bands (ev):

   -87.5401 -47.9578 -47.9320 -47.9316   6.4885  11.3341  11.9180  13.1888
    13.4847  13.5505  15.4091  17.3615  21.3867  21.3952  24.7299

          k = 0.3472 0.3472 0.1538 (  2637 PWs)   bands (ev):

   -87.5399 -47.9602 -47.9317 -47.9314   6.8175  11.4926  11.6930  13.0214
    13.7020  13.7572  15.7961  17.2794  19.0292  21.7297  24.6836

          k = 0.3472 0.3472 0.3075 (  2635 PWs)   bands (ev):

   -87.5397 -47.9650 -47.9313 -47.9309   7.6895  11.2408  11.3741  13.4693
    13.9504  14.0168  16.4515  17.0037  17.0403  21.8393  22.2949

          k = 0.3472 0.3472-0.4613 (  2632 PWs)   bands (ev):

   -87.5396 -47.9674 -47.9310 -47.9307   8.3951  10.6579  11.2479  14.0285
    14.0433  14.7971  14.8708  16.6962  18.5560  19.5815  21.3823

          k = 0.3472-0.5208 0.0000 (  2628 PWs)   bands (ev):

   -87.5393 -47.9568 -47.9422 -47.9307   8.0552   9.8301  12.3903  13.0963
    13.2982  13.4855  15.1923  17.9219  19.2355  22.2203  26.0903

          k = 0.3472-0.5208 0.1538 (  2628 PWs)   bands (ev):

   -87.5392 -47.9592 -47.9420 -47.9305   8.3307  10.0508  11.8378  13.2232
    13.7635  13.8636  15.2869  17.7124  19.4518  20.3603  22.7923

          k = 0.3472-0.5208 0.3075 (  2642 PWs)   bands (ev):

   -87.5389 -47.9640 -47.9415 -47.9301   9.0326  10.4354  11.2467  13.7382
    14.0405  14.9249  15.4685  16.6223  18.9173  19.1027  20.6076

          k = 0.3472-0.5208-0.4613 (  2636 PWs)   bands (ev):

   -87.5388 -47.9664 -47.9412 -47.9299   9.5530  10.5781  10.9217  14.1045
    14.7280  15.3909  15.4142  15.8919  17.2637  19.0131  21.0219

          k =-0.5208-0.5208 0.0000 (  2608 PWs)   bands (ev):

   -87.5385 -47.9559 -47.9411 -47.9411   8.9785  11.5487  11.5487  12.3932
    13.2626  13.2626  15.0670  16.8593  17.8664  22.2937  28.4603

          k =-0.5208-0.5208 0.1538 (  2620 PWs)   bands (ev):

   -87.5384 -47.9583 -47.9409 -47.9409   9.3011  11.1838  11.1838  12.8116
    14.0184  14.0184  15.0700  16.4483  17.7943  21.0976  24.1894

          k =-0.5208-0.5208 0.3075 (  2648 PWs)   bands (ev):

   -87.5382 -47.9630 -47.9404 -47.9404  10.1533  10.7506  10.7506  13.8884
    15.0760  15.1886  15.6391  15.6391  17.4976  19.8843  20.7336

          k =-0.5208-0.5208-0.4613 (  2656 PWs)   bands (ev):

   -87.5380 -47.9654 -47.9402 -47.9402  10.5922  10.5922  10.8169  14.2394
    14.7004  15.0790  17.1268  17.5042  17.5042  18.2699  18.2699

     the Fermi energy is    16.4424 ev

!    total energy              =    -344.08432786 Ry
     estimated scf accuracy    <       0.00000004 Ry
     smearing contrib. (-TS)   =       0.00116073 Ry
     internal energy E=F+TS    =    -344.08548859 Ry

     The total energy is F=E-TS. E is the sum of the following terms:
     one-electron contribution =    -221.83521401 Ry
     hartree contribution      =     124.12772951 Ry
     xc contribution           =     -46.13922159 Ry
     ewald contribution        =    -200.23878250 Ry

     convergence has been achieved in   8 iterations

     Forces acting on atoms (cartesian axes, Ry/au):

     atom    1 type  1   force =     0.00000000    0.00000000    0.00000000
     atom    2 type  2   force =     0.00000000    0.00000000    0.00000000

     Total force =     0.000000     Total SCF correction =     0.000000


     Computing stress (Cartesian axis) and pressure

          total   stress  (Ry/bohr**3)                   (kbar)     P=      -19.32
  -0.00022990   0.00000000   0.00000000          -33.82        0.00        0.00
   0.00000000  -0.00022990   0.00000000            0.00      -33.82        0.00
   0.00000000   0.00000000   0.00006571            0.00        0.00        9.67


     BFGS Geometry Optimization
     Energy error            =      1.7E-05 Ry
     Gradient error          =      0.0E+00 Ry/Bohr
     Cell gradient error     =      9.7E+00 kbar

     number of scf cycles    =   1
     number of bfgs steps    =   0

     enthalpy           new  =    -344.0843278617 Ry

     new trust radius        =       0.0041001750 bohr
     new conv_thr            =       0.0000010000 Ry

     new unit-cell volume =    155.97528 a.u.^3 (    23.11315 Ang^3 )
     density =      6.23454 g/cm^3

CELL_PARAMETERS (alat=  5.38176635)
   0.960000000   0.000000000   0.000000000
   0.000000000   0.960000000   0.000000000
   0.000000000   0.000000000   1.085772357

ATOMIC_POSITIONS (crystal)
Si               0.0000000000        0.0000000000        0.0000000000
Ni               0.5000000000        0.5000000000        0.5000000000



     Writing config-only to output data dir ./tmp/SiNi-vc-relax.save/ :
     XML data file
     NEW-OLD atomic charge density approx. for the potential
     New effective cutoffs (rho, wfc):  399.78  100.00

     total cpu time spent up to now is       16.5 secs

     Self-consistent Calculation

     iteration #  1     ecut=   100.00 Ry     beta= 0.70
     Davidson diagonalization with overlap
     ethr =  1.00E-06,  avg # of iterations =  3.0

     Threshold (ethr) on eigenvalues was too large:
     Diagonalizing with lowered threshold

     Davidson diagonalization with overlap
     ethr =  1.13E-09,  avg # of iterations =  4.0

     total cpu time spent up to now is       20.6 secs

     End of self-consistent calculation

          k = 0.0000 0.0000 0.0000 (  2623 PWs)   bands (ev):

   -87.5726 -47.9921 -47.9307 -47.9307   2.3784  12.2429  12.4526  14.1146
    14.1146  14.4542  16.3396  20.2365  20.2365  21.9620  23.4389

          k = 0.0000 0.0000 0.1535 (  2623 PWs)   bands (ev):

   -87.5725 -47.9946 -47.9305 -47.9305   2.7937  11.5205  12.5423  13.9385
    13.9385  14.4669  15.0545  20.8276  20.8276  23.3255  24.4324

          k = 0.0000 0.0000 0.3070 (  2646 PWs)   bands (ev):

   -87.5723 -47.9996 -47.9302 -47.9302   3.9697   9.2190  12.7305  13.6318
    13.6318  14.4893  14.4923  22.3368  22.3368  23.0744  26.9009

          k = 0.0000 0.0000-0.4605 (  2634 PWs)   bands (ev):

   -87.5722 -48.0021 -47.9300 -47.9300   5.1445   7.4767  12.8295  13.4954
    13.4954  14.4872  14.5051  22.9357  23.7212  23.7212  26.2557

          k = 0.0000 0.1736 0.0000 (  2643 PWs)   bands (ev):

   -87.5719 -47.9911 -47.9413 -47.9298   2.9259  12.1938  12.4732  13.5410
    14.1514  14.1957  17.2201  17.3806  20.9395  22.0727  25.0487

          k = 0.0000 0.1736 0.1535 (  2637 PWs)   bands (ev):

   -87.5718 -47.9936 -47.9411 -47.9296   3.3312  11.7601  12.3846  13.3793
    13.9799  14.2352  15.7835  17.7042  21.4663  24.2827  25.5859

          k = 0.0000 0.1736 0.3070 (  2624 PWs)   bands (ev):

   -87.5715 -47.9986 -47.9407 -47.9293   4.4707   9.6523  12.6619  13.2650
    13.7033  14.2792  14.7029  18.8087  22.7970  23.9275  25.7174

          k = 0.0000 0.1736-0.4605 (  2630 PWs)   bands (ev):

   -87.5714 -48.0011 -47.9405 -47.9291   5.5727   8.0313  12.9359  13.0725
    13.5789  14.3001  14.5169  19.6879  22.6987  23.8994  25.4898

          k = 0.0000 0.3472 0.0000 (  2634 PWs)   bands (ev):

   -87.5703 -47.9892 -47.9626 -47.9281   4.5209  10.3235  12.8141  12.8614
    13.7599  14.2260  15.4244  19.5170  22.2872  22.7416  25.9797

          k = 0.0000 0.3472 0.1535 (  2620 PWs)   bands (ev):

   -87.5702 -47.9917 -47.9623 -47.9279   4.8904  10.5657  12.2189  13.0626
    13.7938  14.1061  15.4843  17.3844  22.9460  23.0985  25.2924

          k = 0.0000 0.3472 0.3070 (  2618 PWs)   bands (ev):

   -87.5700 -47.9965 -47.9618 -47.9276   5.8954  10.6453  11.3699  13.0853
    13.8262  13.9199  14.9489  16.6028  20.1935  23.8962  26.7323

          k = 0.0000 0.3472-0.4605 (  2624 PWs)   bands (ev):

   -87.5699 -47.9989 -47.9616 -47.9274   6.7587   9.5863  11.7330  12.9397
    13.7509  13.9262  14.5803  17.1388  18.6549  24.3786  27.2848

          k = 0.0000-0.5208 0.0000 (  2628 PWs)   bands (ev):

   -87.5695 -47.9883 -47.9732 -47.9272   6.5422   7.7677  12.6092  12.9990
    13.5699  14.2637  15.3650  22.0179  22.4247  22.7517  24.6566

          k = 0.0000-0.5208 0.1535 (  2634 PWs)   bands (ev):

   -87.5694 -47.9907 -47.9729 -47.9271   6.7936   8.1842  12.3917  13.0074
    13.6149  14.1515  15.2865  19.1079  20.3438  24.6728  25.4748

          k = 0.0000-0.5208 0.3070 (  2630 PWs)   bands (ev):

   -87.5692 -47.9955 -47.9724 -47.9267   7.4207   9.3397  11.7868  12.7906
    13.7069  13.9397  14.9394  17.0497  17.7354  24.7098  27.7332

          k = 0.0000-0.5208-0.4605 (  2640 PWs)   bands (ev):

   -87.5691 -47.9979 -47.9721 -47.9265   7.8491  10.4511  11.3344  12.1054
    13.7541  13.8395  14.6168  16.3652  16.9516  24.7312  30.0708

          k = 0.1736 0.1736 0.0000 (  2623 PWs)   bands (ev):

   -87.5711 -47.9902 -47.9406 -47.9402   3.4646  12.3526  12.3804  13.4446
    13.8878  13.8967  17.2743  18.2117  18.3506  22.3719  28.4034

          k = 0.1736 0.1736 0.1535 (  2621 PWs)   bands (ev):

   -87.5710 -47.9926 -47.9404 -47.9400   3.8600  11.9358  12.4274  13.2889
    13.6670  13.9423  16.4168  17.7773  18.7058  25.3020  27.5617

          k = 0.1736 0.1736 0.3070 (  2630 PWs)   bands (ev):

   -87.5707 -47.9976 -47.9400 -47.9396   4.9638  10.0548  12.5940  13.2851
    13.5133  14.0236  15.0050  18.9319  19.6221  24.7625  24.9110

          k = 0.1736 0.1736-0.4605 (  2626 PWs)   bands (ev):

   -87.5706 -48.0000 -47.9398 -47.9395   6.0008   8.5543  12.7013  13.1003
    13.7519  14.0585  14.5697  19.7940  20.4291  23.2895  23.3714

          k = 0.1736 0.3472 0.0000 (  2636 PWs)   bands (ev):

   -87.5696 -47.9883 -47.9615 -47.9386   5.0277  10.6847  12.7749  12.9776
    13.5789  13.9077  15.5200  19.3729  20.0962  22.9118  25.8468

          k = 0.1736 0.3472 0.1535 (  2631 PWs)   bands (ev):

   -87.5694 -47.9907 -47.9613 -47.9384   5.3877  10.9038  12.2384  13.2040
    13.5761  13.8153  15.7160  17.8240  19.6620  23.6686  25.2615

          k = 0.1736 0.3472 0.3070 (  2626 PWs)   bands (ev):

   -87.5692 -47.9955 -47.9608 -47.9380   6.3618  10.9706  11.4043  13.2474
    13.6210  13.9064  15.4076  16.6612  20.3321  20.7335  26.0494

          k = 0.1736 0.3472-0.4605 (  2632 PWs)   bands (ev):

   -87.5691 -47.9979 -47.9606 -47.9378   7.1873   9.9534  11.6266  13.1531
    13.9243  14.0468  14.6445  17.1888  19.0991  20.9847  24.9281

          k = 0.1736-0.5208 0.0000 (  2642 PWs)   bands (ev):

   -87.5688 -47.9873 -47.9721 -47.9377   6.9470   8.3033  12.7544  13.1686
    13.2544  13.9650  15.3273  20.7401  22.0572  22.9500  23.6760

          k = 0.1736-0.5208 0.1535 (  2632 PWs)   bands (ev):

   -87.5687 -47.9897 -47.9718 -47.9375   7.2035   8.6868  12.3006  13.2288
    13.6408  13.8174  15.3195  19.4101  20.9915  21.0379  23.4121

          k = 0.1736-0.5208 0.3070 (  2624 PWs)   bands (ev):

   -87.5684 -47.9945 -47.9713 -47.9371   7.8489   9.6967  11.6016  13.0644
    13.8167  14.1079  15.1394  17.0965  18.1007  21.4707  24.4979

          k = 0.1736-0.5208-0.4605 (  2628 PWs)   bands (ev):

   -87.5683 -47.9969 -47.9711 -47.9369   8.3004  10.4956  11.1603  12.6758
    14.1961  14.3445  14.6398  16.2112  17.0222  21.8128  25.2523

          k = 0.3472 0.3472 0.0000 (  2630 PWs)   bands (ev):

   -87.5680 -47.9864 -47.9597 -47.9593   6.4705  11.3157  11.8993  13.1571
    13.4551  13.5278  15.3803  17.3303  21.3281  21.3685  24.6692

          k = 0.3472 0.3472 0.1535 (  2637 PWs)   bands (ev):

   -87.5679 -47.9888 -47.9594 -47.9591   6.7981  11.4724  11.6728  12.9920
    13.6743  13.7329  15.7661  17.2464  18.9815  21.7015  24.6318

          k = 0.3472 0.3472 0.3070 (  2635 PWs)   bands (ev):

   -87.5677 -47.9935 -47.9590 -47.9586   7.6658  11.2180  11.3529  13.4415
    13.9238  13.9911  16.4116  16.9706  17.0062  21.8000  22.2575

          k = 0.3472 0.3472-0.4605 (  2632 PWs)   bands (ev):

   -87.5676 -47.9959 -47.9587 -47.9584   8.3665  10.6377  11.2265  14.0021
    14.0187  14.7667  14.8350  16.6598  18.5131  19.5545  21.3521

          k = 0.3472-0.5208 0.0000 (  2628 PWs)   bands (ev):

   -87.5673 -47.9855 -47.9699 -47.9584   8.0390   9.8106  12.3706  13.0654
    13.2763  13.4557  15.1645  17.8888  19.2103  22.1621  26.0278

          k = 0.3472-0.5208 0.1535 (  2628 PWs)   bands (ev):

   -87.5671 -47.9878 -47.9697 -47.9582   8.3132  10.0301  11.8155  13.1977
    13.7371  13.8351  15.2587  17.6764  19.4251  20.3157  22.7391

          k = 0.3472-0.5208 0.3070 (  2642 PWs)   bands (ev):

   -87.5669 -47.9925 -47.9692 -47.9578   9.0113  10.4126  11.2252  13.7100
    14.0143  14.8950  15.4393  16.5858  18.8810  19.0657  20.5702

          k = 0.3472-0.5208-0.4605 (  2636 PWs)   bands (ev):

   -87.5668 -47.9949 -47.9690 -47.9576   9.5278  10.5546  10.9023  14.0787
    14.6954  15.3540  15.3823  15.8657  17.2332  18.9714  20.9834

          k =-0.5208-0.5208 0.0000 (  2608 PWs)   bands (ev):

   -87.5665 -47.9845 -47.9688 -47.9688   8.9644  11.5296  11.5296  12.3720
    13.2327  13.2327  15.0397  16.8226  17.8404  22.2352  28.4020

          k =-0.5208-0.5208 0.1535 (  2620 PWs)   bands (ev):

   -87.5664 -47.9869 -47.9686 -47.9686   9.2859  11.1631  11.1631  12.7884
    13.9895  13.9895  15.0426  16.4095  17.7675  21.0531  24.1385

          k =-0.5208-0.5208 0.3070 (  2648 PWs)   bands (ev):

   -87.5661 -47.9915 -47.9681 -47.9681  10.1356  10.7292  10.7292  13.8601
    15.0485  15.1485  15.6094  15.6094  17.4687  19.8529  20.6913

          k =-0.5208-0.5208-0.4605 (  2656 PWs)   bands (ev):

   -87.5660 -47.9939 -47.9679 -47.9679  10.5707  10.5707  10.7978  14.2006
    14.6678  15.0515  17.0973  17.4785  17.4785  18.2262  18.2262

     the Fermi energy is    16.4021 ev

!    total energy              =    -344.08433893 Ry
     estimated scf accuracy    <       0.00000042 Ry
     smearing contrib. (-TS)   =       0.00121587 Ry
     internal energy E=F+TS    =    -344.08555480 Ry

     The total energy is F=E-TS. E is the sum of the following terms:
     one-electron contribution =    -222.04878937 Ry
     hartree contribution      =     124.21551579 Ry
     xc contribution           =     -46.13755945 Ry
     ewald contribution        =    -200.11472177 Ry

     convergence has been achieved in   1 iterations

     Forces acting on atoms (cartesian axes, Ry/au):

     atom    1 type  1   force =     0.00000000    0.00000000    0.00000000
     atom    2 type  2   force =     0.00000000    0.00000000    0.00000000

     Total force =     0.000000     Total SCF correction =     0.000000


     Computing stress (Cartesian axis) and pressure

          total   stress  (Ry/bohr**3)                   (kbar)     P=      -20.85
  -0.00024059   0.00000000   0.00000000          -35.39        0.00        0.00
   0.00000000  -0.00024059   0.00000000            0.00      -35.39        0.00
   0.00000000   0.00000000   0.00005603            0.00        0.00        8.24

     Energy error            =      1.1E-05 Ry
     Gradient error          =      0.0E+00 Ry/Bohr
     Cell gradient error     =      8.2E+00 kbar

     number of scf cycles    =   2
     number of bfgs steps    =   1

     enthalpy           old  =    -344.0843278617 Ry
     enthalpy           new  =    -344.0843389315 Ry

     CASE: enthalpy          _new < enthalpy          _old


     WARNING: bfgs curvature condition failed, Theta= 0.938
     new trust radius        =       0.0061452167 bohr
     new conv_thr            =       0.0000000100 Ry

     new unit-cell volume =    156.35901 a.u.^3 (    23.17002 Ang^3 )
     density =      6.21923 g/cm^3

CELL_PARAMETERS (alat=  5.38176635)
   0.960000000   0.000000000   0.000000000
   0.000000000   0.960000000   0.000000000
   0.000000000   0.000000000   1.088443629

ATOMIC_POSITIONS (crystal)
Si               0.0000000000        0.0000000000        0.0000000000
Ni               0.5000000000        0.5000000000        0.5000000000



     Writing config-only to output data dir ./tmp/SiNi-vc-relax.save/ :
     XML data file
     NEW-OLD atomic charge density approx. for the potential
     New effective cutoffs (rho, wfc):  399.50  100.00

     total cpu time spent up to now is       21.8 secs

     Self-consistent Calculation

     iteration #  1     ecut=   100.00 Ry     beta= 0.70
     Davidson diagonalization with overlap
     ethr =  1.00E-06,  avg # of iterations =  3.0

     Threshold (ethr) on eigenvalues was too large:
     Diagonalizing with lowered threshold

     Davidson diagonalization with overlap
     ethr =  6.72E-09,  avg # of iterations =  3.1

     total cpu time spent up to now is       25.8 secs

     total energy              =    -344.08434323 Ry
     estimated scf accuracy    <       0.00000087 Ry

     iteration #  2     ecut=   100.00 Ry     beta= 0.70
     Davidson diagonalization with overlap
     ethr =  3.95E-09,  avg # of iterations =  2.9

     total cpu time spent up to now is       27.7 secs

     total energy              =    -344.08434263 Ry
     estimated scf accuracy    <       0.00000838 Ry

     iteration #  3     ecut=   100.00 Ry     beta= 0.70
     Davidson diagonalization with overlap
     ethr =  3.95E-09,  avg # of iterations =  2.2

     total cpu time spent up to now is       29.5 secs

     total energy              =    -344.08434369 Ry
     estimated scf accuracy    <       0.00000002 Ry

     iteration #  4     ecut=   100.00 Ry     beta= 0.70
     Davidson diagonalization with overlap
     ethr =  8.71E-11,  avg # of iterations =  2.6

     total cpu time spent up to now is       31.2 secs

     End of self-consistent calculation

          k = 0.0000 0.0000 0.0000 (  2623 PWs)   bands (ev):

   -87.6117 -48.0328 -47.9685 -47.9685   2.3507  12.2064  12.4216  14.0743
    14.0743  14.4201  16.2458  20.2080  20.2080  21.8722  23.3922

          k = 0.0000 0.0000 0.1531 (  2623 PWs)   bands (ev):

   -87.6115 -48.0352 -47.9683 -47.9683   2.7635  11.4754  12.5101  13.9006
    13.9006  14.4325  14.9834  20.7950  20.7950  23.2790  24.3387

          k = 0.0000 0.0000 0.3062 (  2646 PWs)   bands (ev):

   -87.6113 -48.0401 -47.9680 -47.9680   3.9315   9.1727  12.6958  13.5976
    13.5976  14.4347  14.4574  22.2938  22.2938  23.0287  26.8390

          k = 0.0000 0.0000-0.4594 (  2634 PWs)   bands (ev):

   -87.6112 -48.0425 -47.9678 -47.9678   5.0935   7.4431  12.7935  13.4627
    13.4627  14.4341  14.4700  22.8908  23.6625  23.6625  26.2228

          k = 0.0000 0.1736 0.0000 (  2643 PWs)   bands (ev):

   -87.6109 -48.0318 -47.9791 -47.9676   2.8981  12.1634  12.4390  13.4944
    14.1112  14.1629  17.1830  17.2925  20.9088  21.9850  24.9997

          k = 0.0000 0.1736 0.1531 (  2637 PWs)   bands (ev):

   -87.6108 -48.0342 -47.9789 -47.9675   3.3010  11.7164  12.3541  13.3378
    13.9423  14.2014  15.7162  17.6627  21.4318  24.2194  25.4973

          k = 0.0000 0.1736 0.3062 (  2624 PWs)   bands (ev):

   -87.6105 -48.0391 -47.9786 -47.9671   4.4327   9.6072  12.6291  13.2282
    13.6690  14.2450  14.6494  18.7598  22.7526  23.8808  25.6617

          k = 0.0000 0.1736-0.4594 (  2630 PWs)   bands (ev):

   -87.6104 -48.0415 -47.9784 -47.9670   5.5228   7.9978  12.9000  13.0393
    13.5459  14.2655  14.4647  19.6297  22.6598  23.8426  25.4386

          k = 0.0000 0.3472 0.0000 (  2634 PWs)   bands (ev):

   -87.6093 -48.0299 -48.0004 -47.9659   4.4930  10.2968  12.7792  12.8134
    13.7289  14.1858  15.3845  19.4293  22.2105  22.7064  25.8892

          k = 0.0000 0.3472 0.1531 (  2620 PWs)   bands (ev):

   -87.6092 -48.0323 -48.0001 -47.9658   4.8601  10.5368  12.1755  13.0235
    13.7622  14.0678  15.4424  17.3129  22.8771  23.0601  25.2159

          k = 0.0000 0.3472 0.3062 (  2618 PWs)   bands (ev):

   -87.6090 -48.0370 -47.9997 -47.9654   5.8579  10.6056  11.3347  13.0475
    13.7925  13.8858  14.8986  16.5488  20.1365  23.8502  26.6811

          k = 0.0000 0.3472-0.4594 (  2624 PWs)   bands (ev):

   -87.6089 -48.0393 -47.9994 -47.9653   6.7121   9.5533  11.6944  12.9045
    13.7174  13.8927  14.5304  17.0790  18.6112  24.3270  27.2293

          k = 0.0000-0.5208 0.0000 (  2628 PWs)   bands (ev):

   -87.6086 -48.0290 -48.0110 -47.9651   6.5150   7.7394  12.5614  12.9638
    13.5396  14.2235  15.3270  21.9324  22.3573  22.6580  24.6137

          k = 0.0000-0.5208 0.1531 (  2634 PWs)   bands (ev):

   -87.6084 -48.0313 -48.0107 -47.9649   6.7642   8.1535  12.3465  12.9711
    13.5839  14.1130  15.2471  19.0390  20.2643  24.6290  25.4101

          k = 0.0000-0.5208 0.3062 (  2630 PWs)   bands (ev):

   -87.6082 -48.0360 -48.0102 -47.9646   7.3852   9.3022  11.7490  12.7525
    13.6746  13.9045  14.8946  16.9888  17.6768  24.6639  27.6810

          k = 0.0000-0.5208-0.4594 (  2640 PWs)   bands (ev):

   -87.6081 -48.0383 -48.0099 -47.9644   7.8081  10.4041  11.3030  12.0708
    13.7210  13.8058  14.5690  16.3070  16.9036  24.6841  29.0125

          k = 0.1736 0.1736 0.0000 (  2623 PWs)   bands (ev):

   -87.6101 -48.0309 -47.9784 -47.9780   3.4367  12.3239  12.3474  13.3968
    13.8559  13.8562  17.2349  18.1251  18.3145  22.2797  28.3671

          k = 0.1736 0.1736 0.1531 (  2621 PWs)   bands (ev):

   -87.6100 -48.0333 -47.9782 -47.9778   3.8298  11.8941  12.3978  13.2476
    13.6282  13.9096  16.3493  17.7347  18.6661  25.1963  27.5061

          k = 0.1736 0.1736 0.3062 (  2630 PWs)   bands (ev):

   -87.6098 -48.0380 -47.9778 -47.9775   4.9258  10.0110  12.5630  13.2488
    13.4759  13.9898  14.9522  18.8818  19.5748  24.7128  24.8555

          k = 0.1736 0.1736-0.4594 (  2626 PWs)   bands (ev):

   -87.6097 -48.0404 -47.9776 -47.9773   5.9517   8.5211  12.6701  13.0644
    13.7160  14.0246  14.5179  19.7355  20.3713  23.2509  23.3308

          k = 0.1736 0.3472 0.0000 (  2636 PWs)   bands (ev):

   -87.6086 -48.0290 -47.9993 -47.9764   5.0000  10.6581  12.7431  12.9306
    13.5478  13.8664  15.4794  19.3344  20.0090  22.8286  25.8025

          k = 0.1736 0.3472 0.1531 (  2631 PWs)   bands (ev):

   -87.6085 -48.0313 -47.9991 -47.9762   5.3577  10.8754  12.1981  13.1658
    13.5416  13.7784  15.6736  17.7523  19.6203  23.5951  25.1998

          k = 0.1736 0.3472 0.3062 (  2626 PWs)   bands (ev):

   -87.6082 -48.0360 -47.9987 -47.9758   6.3247  10.9317  11.3716  13.2117
    13.5840  13.8715  15.3566  16.6076  20.2820  20.6779  25.9966

          k = 0.1736 0.3472-0.4594 (  2632 PWs)   bands (ev):

   -87.6081 -48.0383 -47.9984 -47.9757   7.1415   9.9214  11.5920  13.1185
    13.8901  14.0089  14.5940  17.1298  19.0562  20.9283  24.8877

          k = 0.1736-0.5208 0.0000 (  2642 PWs)   bands (ev):

   -87.6078 -48.0281 -48.0099 -47.9755   6.9206   8.2747  12.7078  13.1348
    13.2247  13.9238  15.2892  20.6999  21.9712  22.9138  23.5826

          k = 0.1736-0.5208 0.1531 (  2632 PWs)   bands (ev):

   -87.6077 -48.0304 -48.0096 -47.9753   7.1750   8.6561  12.2605  13.1934
    13.6057  13.7782  15.2805  19.3404  20.9482  20.9586  23.3732

          k = 0.1736-0.5208 0.3062 (  2624 PWs)   bands (ev):

   -87.6075 -48.0350 -48.0091 -47.9749   7.8142   9.6598  11.5671  13.0279
    13.7788  14.0719  15.0968  17.0368  18.0412  21.4218  24.4501

          k = 0.1736-0.5208-0.4594 (  2628 PWs)   bands (ev):

   -87.6074 -48.0373 -48.0089 -47.9748   8.2601  10.4531  11.1307  12.6412
    14.1576  14.3095  14.5924  16.1542  16.9748  21.7584  25.1972

          k = 0.3472 0.3472 0.0000 (  2630 PWs)   bands (ev):

   -87.6070 -48.0271 -47.9975 -47.9971   6.4437  11.2896  11.8722  13.1117
    13.4130  13.4965  15.3400  17.2856  21.2407  21.3290  24.5792

          k = 0.3472 0.3472 0.1531 (  2637 PWs)   bands (ev):

   -87.6069 -48.0294 -47.9973 -47.9969   6.7691  11.4439  11.6437  12.9499
    13.6353  13.6992  15.7235  17.1988  18.9111  21.6598  24.5546

          k = 0.3472 0.3472 0.3062 (  2635 PWs)   bands (ev):

   -87.6067 -48.0340 -47.9968 -47.9965   7.6305  11.1854  11.3223  13.4016
    13.8872  13.9555  16.3532  16.9228  16.9563  21.7423  22.2020

          k = 0.3472 0.3472-0.4594 (  2632 PWs)   bands (ev):

   -87.6066 -48.0363 -47.9966 -47.9963   8.3238  10.6088  11.1956  13.9658
    13.9849  14.7226  14.7837  16.6052  18.4503  19.5153  21.3081

          k = 0.3472-0.5208 0.0000 (  2628 PWs)   bands (ev):

   -87.6063 -48.0262 -48.0077 -47.9963   8.0152   9.7815  12.3428  13.0212
    13.2455  13.4134  15.1264  17.8412  19.1735  22.0751  25.9347

          k = 0.3472-0.5208 0.1531 (  2628 PWs)   bands (ev):

   -87.6062 -48.0285 -48.0075 -47.9961   8.2875   9.9993  11.7839  13.1613
    13.7001  13.7946  15.2198  17.6239  19.3857  20.2498  22.6604

          k = 0.3472-0.5208 0.3062 (  2642 PWs)   bands (ev):

   -87.6059 -48.0330 -48.0070 -47.9956   8.9800  10.3789  11.1948  13.6697
    13.9778  14.8524  15.3984  16.5313  18.8274  19.0118  20.5150

          k = 0.3472-0.5208-0.4594 (  2636 PWs)   bands (ev):

   -87.6058 -48.0353 -48.0068 -47.9954   9.4907  10.5200  10.8751  14.0430
    14.6494  15.2995  15.3355  15.8282  17.1891  18.9097  20.9260

          k =-0.5208-0.5208 0.0000 (  2608 PWs)   bands (ev):

   -87.6055 -48.0253 -48.0066 -48.0066   8.9441  11.5010  11.5010  12.3414
    13.1900  13.1900  15.0026  16.7707  17.8030  22.1476  28.3151

          k =-0.5208-0.5208 0.1531 (  2620 PWs)   bands (ev):

   -87.6054 -48.0275 -48.0064 -48.0064   9.2643  11.1327  11.1327  12.7550
    13.9479  13.9479  15.0055  16.3537  17.7288  20.9869  24.0633

          k =-0.5208-0.5208 0.3062 (  2648 PWs)   bands (ev):

   -87.6052 -48.0320 -48.0060 -48.0060  10.1107  10.6981  10.6981  13.8196
    15.0112  15.0893  15.5663  15.5663  17.4262  19.8075  20.6290

          k =-0.5208-0.5208-0.4594 (  2656 PWs)   bands (ev):

   -87.6051 -48.0343 -48.0058 -48.0058  10.5394  10.5394  10.7715  14.1421
    14.6219  15.0141  17.0527  17.4407  17.4407  18.1622  18.1622

     the Fermi energy is    16.3431 ev

!    total energy              =    -344.08434369 Ry
     estimated scf accuracy    <          5.3E-09 Ry
     smearing contrib. (-TS)   =       0.00130242 Ry
     internal energy E=F+TS    =    -344.08564611 Ry

     The total energy is F=E-TS. E is the sum of the following terms:
     one-electron contribution =    -222.34973182 Ry
     hartree contribution      =     124.32574208 Ry
     xc contribution           =     -46.13286931 Ry
     ewald contribution        =    -199.92878707 Ry

     convergence has been achieved in   4 iterations

     Forces acting on atoms (cartesian axes, Ry/au):

     atom    1 type  1   force =     0.00000000    0.00000000    0.00000000
     atom    2 type  2   force =     0.00000000    0.00000000    0.00000000

     Total force =     0.000000     Total SCF correction =     0.000000


     Computing stress (Cartesian axis) and pressure

          total   stress  (Ry/bohr**3)                   (kbar)     P=      -28.94
  -0.00028974   0.00000000   0.00000000          -42.62        0.00        0.00
   0.00000000  -0.00028974   0.00000000            0.00      -42.62        0.00
   0.00000000   0.00000000  -0.00001079            0.00        0.00       -1.59

     Energy error            =      4.8E-06 Ry
     Gradient error          =      0.0E+00 Ry/Bohr
     Cell gradient error     =      1.6E+00 kbar

     number of scf cycles    =   3
     number of bfgs steps    =   2

     enthalpy           old  =    -344.0843389315 Ry
     enthalpy           new  =    -344.0843436911 Ry

     CASE: enthalpy          _new < enthalpy          _old

     new trust radius        =       0.0009908365 bohr
     new conv_thr            =       0.0000000100 Ry

     new unit-cell volume =    156.29707 a.u.^3 (    23.16084 Ang^3 )
     density =      6.22170 g/cm^3

CELL_PARAMETERS (alat=  5.38176635)
   0.960000000   0.000000000   0.000000000
   0.000000000   0.960000000   0.000000000
   0.000000000   0.000000000   1.088012391

ATOMIC_POSITIONS (crystal)
Si               0.0000000000        0.0000000000        0.0000000000
Ni               0.5000000000        0.5000000000        0.5000000000



     Writing config-only to output data dir ./tmp/SiNi-vc-relax.save/ :
     XML data file
     NEW-OLD atomic charge density approx. for the potential
     New effective cutoffs (rho, wfc):  399.55  100.00

     total cpu time spent up to now is       32.4 secs

     Self-consistent Calculation

     iteration #  1     ecut=   100.00 Ry     beta= 0.70
     Davidson diagonalization with overlap
     ethr =  1.00E-06,  avg # of iterations =  2.0

     Threshold (ethr) on eigenvalues was too large:
     Diagonalizing with lowered threshold

     Davidson diagonalization with overlap
     ethr =  3.28E-10,  avg # of iterations =  4.2

     total cpu time spent up to now is       36.3 secs

     End of self-consistent calculation

          k = 0.0000 0.0000 0.0000 (  2623 PWs)   bands (ev):

   -87.6055 -48.0264 -47.9623 -47.9623   2.3552  12.2123  12.4267  14.0808
    14.0808  14.4259  16.2608  20.2126  20.2126  21.8868  23.3998

          k = 0.0000 0.0000 0.1532 (  2623 PWs)   bands (ev):

   -87.6054 -48.0288 -47.9622 -47.9622   2.7683  11.4827  12.5155  13.9067
    13.9067  14.4383  14.9948  20.8002  20.8002  23.2865  24.3539

          k = 0.0000 0.0000 0.3064 (  2646 PWs)   bands (ev):

   -87.6051 -48.0337 -47.9618 -47.9618   3.9377   9.1802  12.7016  13.6031
    13.6031  14.4435  14.4634  22.3007  22.3007  23.0361  26.8489

          k = 0.0000 0.0000-0.4596 (  2634 PWs)   bands (ev):

   -87.6050 -48.0362 -47.9617 -47.9617   5.1017   7.4485  12.7994  13.4680
    13.4680  14.4427  14.4759  22.8980  23.6720  23.6720  26.2282

          k = 0.0000 0.1736 0.0000 (  2643 PWs)   bands (ev):

   -87.6047 -48.0254 -47.9730 -47.9615   2.9026  12.1684  12.4446  13.5019
    14.1177  14.1685  17.1890  17.3067  20.9138  21.9992  25.0076

          k = 0.0000 0.1736 0.1532 (  2637 PWs)   bands (ev):

   -87.6046 -48.0279 -47.9728 -47.9613   3.3059  11.7235  12.3591  13.3445
    13.9484  14.2072  15.7270  17.6694  21.4374  24.2297  25.5116

          k = 0.0000 0.1736 0.3064 (  2624 PWs)   bands (ev):

   -87.6043 -48.0327 -47.9724 -47.9610   4.4388   9.6145  12.6346  13.2342
    13.6745  14.2508  14.6580  18.7677  22.7597  23.8883  25.6707

          k = 0.0000 0.1736-0.4596 (  2630 PWs)   bands (ev):

   -87.6042 -48.0351 -47.9722 -47.9608   5.5308   8.0033  12.9060  13.0446
    13.5512  14.2714  14.4731  19.6391  22.6661  23.8518  25.4468

          k = 0.0000 0.3472 0.0000 (  2634 PWs)   bands (ev):

   -87.6031 -48.0236 -47.9942 -47.9598   4.4975  10.3011  12.7849  12.8212
    13.7342  14.1922  15.3911  19.4434  22.2229  22.7121  25.9037

          k = 0.0000 0.3472 0.1532 (  2620 PWs)   bands (ev):

   -87.6030 -48.0259 -47.9940 -47.9596   4.8650  10.5414  12.1825  13.0299
    13.7676  14.0739  15.4493  17.3244  22.8882  23.0663  25.2282

          k = 0.0000 0.3472 0.3064 (  2618 PWs)   bands (ev):

   -87.6028 -48.0306 -47.9935 -47.9593   5.8639  10.6121  11.3404  13.0537
    13.7981  13.8914  14.9068  16.5575  20.1457  23.8576  26.6893

          k = 0.0000 0.3472-0.4596 (  2624 PWs)   bands (ev):

   -87.6027 -48.0330 -47.9933 -47.9591   6.7196   9.5586  11.7006  12.9104
    13.7228  13.8984  14.5385  17.0886  18.6183  24.3353  27.2382

          k = 0.0000-0.5208 0.0000 (  2628 PWs)   bands (ev):

   -87.6024 -48.0226 -48.0048 -47.9589   6.5194   7.7439  12.5691  12.9696
    13.5448  14.2300  15.3333  21.9461  22.3682  22.6731  24.6206

          k = 0.0000-0.5208 0.1532 (  2634 PWs)   bands (ev):

   -87.6023 -48.0249 -48.0045 -47.9587   6.7689   8.1585  12.3538  12.9771
    13.5892  14.1192  15.2536  19.0501  20.2771  24.6361  25.4205

          k = 0.0000-0.5208 0.3064 (  2630 PWs)   bands (ev):

   -87.6020 -48.0296 -48.0040 -47.9584   7.3909   9.3082  11.7551  12.7587
    13.6801  13.9102  14.9019  16.9986  17.6863  24.6713  27.6894

          k = 0.0000-0.5208-0.4596 (  2640 PWs)   bands (ev):

   -87.6019 -48.0319 -48.0038 -47.9582   7.8147  10.4116  11.3081  12.0766
    13.7267  13.8112  14.5767  16.3164  16.9114  24.6917  29.0230

          k = 0.1736 0.1736 0.0000 (  2623 PWs)   bands (ev):

   -87.6039 -48.0245 -47.9722 -47.9719   3.4412  12.3287  12.3527  13.4045
    13.8616  13.8624  17.2413  18.1390  18.3204  22.2946  28.3729

          k = 0.1736 0.1736 0.1532 (  2621 PWs)   bands (ev):

   -87.6038 -48.0269 -47.9720 -47.9717   3.8346  11.9008  12.4027  13.2542
    13.6345  13.9151  16.3601  17.7416  18.6725  25.2133  27.5151

          k = 0.1736 0.1736 0.3064 (  2630 PWs)   bands (ev):

   -87.6036 -48.0317 -47.9717 -47.9713   4.9319  10.0181  12.5681  13.2547
    13.4819  13.9956  14.9607  18.8899  19.5824  24.7209  24.8644

          k = 0.1736 0.1736-0.4596 (  2626 PWs)   bands (ev):

   -87.6035 -48.0341 -47.9715 -47.9711   5.9596   8.5265  12.6751  13.0703
    13.7218  14.0303  14.5263  19.7449  20.3805  23.2572  23.3374

          k = 0.1736 0.3472 0.0000 (  2636 PWs)   bands (ev):

   -87.6024 -48.0226 -47.9932 -47.9702   5.0045  10.6624  12.7484  12.9381
    13.5530  13.8730  15.4861  19.3406  20.0230  22.8421  25.8096

          k = 0.1736 0.3472 0.1532 (  2631 PWs)   bands (ev):

   -87.6023 -48.0250 -47.9929 -47.9700   5.3625  10.8800  12.2047  13.1720
    13.5473  13.7844  15.6806  17.7638  19.6271  23.6069  25.2098

          k = 0.1736 0.3472 0.3064 (  2626 PWs)   bands (ev):

   -87.6020 -48.0297 -47.9925 -47.9697   6.3307  10.9380  11.3769  13.2176
    13.5900  13.8773  15.3649  16.6162  20.2901  20.6868  26.0051

          k = 0.1736 0.3472-0.4596 (  2632 PWs)   bands (ev):

   -87.6019 -48.0320 -47.9923 -47.9695   7.1488   9.9266  11.5976  13.1242
    13.8959  14.0150  14.6022  17.1393  19.0632  20.9373  24.8943

          k = 0.1736-0.5208 0.0000 (  2642 PWs)   bands (ev):

   -87.6016 -48.0217 -48.0037 -47.9693   6.9249   8.2793  12.7153  13.1403
    13.2297  13.9304  15.2955  20.7064  21.9850  22.9196  23.5976

          k = 0.1736-0.5208 0.1532 (  2632 PWs)   bands (ev):

   -87.6015 -48.0240 -48.0035 -47.9691   7.1796   8.6610  12.2670  13.1992
    13.6115  13.7845  15.2869  19.3516  20.9552  20.9713  23.3794

          k = 0.1736-0.5208 0.3064 (  2624 PWs)   bands (ev):

   -87.6013 -48.0286 -48.0030 -47.9688   7.8198   9.6657  11.5727  13.0339
    13.7849  14.0779  15.1038  17.0464  18.0508  21.4297  24.4577

          k = 0.1736-0.5208-0.4596 (  2628 PWs)   bands (ev):

   -87.6012 -48.0309 -48.0027 -47.9686   8.2666  10.4599  11.1356  12.6469
    14.1638  14.3154  14.6001  16.1634  16.9825  21.7671  25.2060

          k = 0.3472 0.3472 0.0000 (  2630 PWs)   bands (ev):

   -87.6008 -48.0207 -47.9913 -47.9909   6.4480  11.2938  11.8766  13.1190
    13.4198  13.5017  15.3467  17.2930  21.2547  21.3354  24.5938

          k = 0.3472 0.3472 0.1532 (  2637 PWs)   bands (ev):

   -87.6007 -48.0231 -47.9911 -47.9907   6.7738  11.4485  11.6484  12.9566
    13.6416  13.7047  15.7305  17.2066  18.9225  21.6665  24.5670

          k = 0.3472 0.3472 0.3064 (  2635 PWs)   bands (ev):

   -87.6005 -48.0277 -47.9906 -47.9903   7.6362  11.1907  11.3272  13.4081
    13.8932  13.9613  16.3626  16.9305  16.9644  21.7516  22.2110

          k = 0.3472 0.3472-0.4596 (  2632 PWs)   bands (ev):

   -87.6004 -48.0300 -47.9904 -47.9901   8.3307  10.6135  11.2006  13.9718
    13.9905  14.7297  14.7920  16.6140  18.4604  19.5217  21.3152

          k = 0.3472-0.5208 0.0000 (  2628 PWs)   bands (ev):

   -87.6001 -48.0198 -48.0015 -47.9901   8.0191   9.7862  12.3474  13.0283
    13.2505  13.4202  15.1327  17.8490  19.1794  22.0890  25.9496

          k = 0.3472-0.5208 0.1532 (  2628 PWs)   bands (ev):

   -87.6000 -48.0221 -48.0013 -47.9899   8.2917  10.0042  11.7890  13.1671
    13.7061  13.8012  15.2262  17.6325  19.3921  20.2604  22.6731

          k = 0.3472-0.5208 0.3064 (  2642 PWs)   bands (ev):

   -87.5997 -48.0267 -48.0009 -47.9895   8.9850  10.3843  11.1998  13.6762
    13.9838  14.8594  15.4051  16.5401  18.8360  19.0205  20.5239

          k = 0.3472-0.5208-0.4596 (  2636 PWs)   bands (ev):

   -87.5996 -48.0290 -48.0006 -47.9893   9.4967  10.5256  10.8796  14.0489
    14.6569  15.3083  15.3430  15.8344  17.1963  18.9196  20.9352

          k =-0.5208-0.5208 0.0000 (  2608 PWs)   bands (ev):

   -87.5993 -48.0189 -48.0005 -48.0005   8.9475  11.5056  11.5056  12.3462
    13.1969  13.1969  15.0087  16.7792  17.8091  22.1616  28.3290

          k =-0.5208-0.5208 0.1532 (  2620 PWs)   bands (ev):

   -87.5992 -48.0211 -48.0002 -48.0002   9.2678  11.1376  11.1376  12.7603
    13.9546  13.9546  15.0116  16.3628  17.7350  20.9975  24.0755

          k =-0.5208-0.5208 0.3064 (  2648 PWs)   bands (ev):

   -87.5990 -48.0257 -47.9998 -47.9998  10.1148  10.7031  10.7031  13.8261
    15.0174  15.0989  15.5732  15.5732  17.4331  19.8150  20.6390

          k =-0.5208-0.5208-0.4596 (  2656 PWs)   bands (ev):

   -87.5989 -48.0280 -47.9996 -47.9996  10.5444  10.5444  10.7759  14.1515
    14.6294  15.0203  17.0598  17.4468  17.4468  18.1725  18.1725

     the Fermi energy is    16.3526 ev

!    total energy              =    -344.08434396 Ry
     estimated scf accuracy    <          7.6E-09 Ry
     smearing contrib. (-TS)   =       0.00128901 Ry
     internal energy E=F+TS    =    -344.08563297 Ry

     The total energy is F=E-TS. E is the sum of the following terms:
     one-electron contribution =    -222.30087401 Ry
     hartree contribution      =     124.30764281 Ry
     xc contribution           =     -46.13361099 Ry
     ewald contribution        =    -199.95879078 Ry

     convergence has been achieved in   1 iterations

     Forces acting on atoms (cartesian axes, Ry/au):

     atom    1 type  1   force =     0.00000000    0.00000000    0.00000000
     atom    2 type  2   force =     0.00000000    0.00000000    0.00000000

     Total force =     0.000000     Total SCF correction =     0.000000


     Computing stress (Cartesian axis) and pressure

          total   stress  (Ry/bohr**3)                   (kbar)     P=      -27.45
  -0.00027952   0.00000000   0.00000000          -41.12        0.00        0.00
   0.00000000  -0.00027952   0.00000000            0.00      -41.12        0.00
   0.00000000   0.00000000  -0.00000072            0.00        0.00       -0.11

     Energy error            =      2.7E-07 Ry
     Gradient error          =      0.0E+00 Ry/Bohr
     Cell gradient error     =      1.1E-01 kbar

     bfgs converged in   4 scf cycles and   3 bfgs steps
     (criteria: energy <  1.0E-04 Ry, force <  1.0E-03 Ry/Bohr, cell <  5.0E-01 kbar)

     End of BFGS Geometry Optimization

     Final enthalpy           =    -344.0843439639 Ry

     File ./tmp/SiNi-vc-relax.bfgs deleted, as requested
Begin final coordinates
     new unit-cell volume =    156.29707 a.u.^3 (    23.16084 Ang^3 )
     density =      6.22170 g/cm^3

CELL_PARAMETERS (alat=  5.38176635)
   0.960000000   0.000000000   0.000000000
   0.000000000   0.960000000   0.000000000
   0.000000000   0.000000000   1.088012391

ATOMIC_POSITIONS (crystal)
Si               0.0000000000        0.0000000000        0.0000000000
Ni               0.5000000000        0.5000000000        0.5000000000
End final coordinates



     Writing config-only to output data dir ./tmp/SiNi-vc-relax.save/ :
     XML data file

     Final scf calculation at the relaxed structure.
     The G-vectors are recalculated for the final unit cell
     Results may differ from those at the preceding step.

     G-vector sticks info
     --------------------
     sticks:   dense  smooth     PW     G-vecs:    dense   smooth      PW
     Sum         853     853    261                21113    21113    3537

     Using Slab Decomposition



     bravais-lattice index     =            0
     lattice parameter (alat)  =       5.3818  a.u.
     unit-cell volume          =     156.2971 (a.u.)^3
     number of atoms/cell      =            2
     number of atomic types    =            2
     number of electrons       =        22.00
     number of Kohn-Sham states=           15
     kinetic-energy cutoff     =     100.0000  Ry
     charge density cutoff     =     400.0000  Ry
     scf convergence threshold =      1.0E-08
     mixing beta               =       0.7000
     number of iterations used =            8  plain     mixing
     press convergence thresh. =      5.0E-01
     Exchange-correlation= PBE
                           (   1   4   3   4   0   0   0)

     celldm(1)=   5.381766  celldm(2)=   0.000000  celldm(3)=   0.000000
     celldm(4)=   0.000000  celldm(5)=   0.000000  celldm(6)=   0.000000

     crystal axes: (cart. coord. in units of alat)
               a(1) = (   0.960000   0.000000   0.000000 )  
               a(2) = (   0.000000   0.960000   0.000000 )  
               a(3) = (   0.000000   0.000000   1.088012 )  

     reciprocal axes: (cart. coord. in units 2 pi/alat)
               b(1) = (  1.041667  0.000000  0.000000 )  
               b(2) = (  0.000000  1.041667  0.000000 )  
               b(3) = (  0.000000  0.000000  0.919107 )  


     PseudoPot. # 1 for Si read from file:
     ./PSEUDO/Si.upf
     MD5 check sum: 02fab3f35e82123ef5bf1cb05d5b1a5e
     Pseudo is Norm-conserving + core correction, Zval =  4.0
     Generated using ONCVPSP code by D. R. Hamann
     Using radial grid of 1510 points,  6 beta functions with: 
                l(1) =   0
                l(2) =   0
                l(3) =   1
                l(4) =   1
                l(5) =   2
                l(6) =   2

     PseudoPot. # 2 for Ni read from file:
     ./PSEUDO/Ni.upf
     MD5 check sum: 2b0a79d100e227970886d6963e34175b
     Pseudo is Norm-conserving + core correction, Zval = 18.0
     Generated using ONCVPSP code by D. R. Hamann
     Using radial grid of 1372 points,  6 beta functions with: 
                l(1) =   0
                l(2) =   0
                l(3) =   1
                l(4) =   1
                l(5) =   2
                l(6) =   2

     atomic species   valence    mass     pseudopotential
     Si                4.00    28.08550     Si( 1.00)
     Ni               18.00    58.69340     Ni( 1.00)

     16 Sym. Ops., with inversion, found



   Cartesian axes

     site n.     atom                  positions (alat units)
         1        Si     tau(   1) = (   0.0000000   0.0000000   0.0000000  )
         2        Ni     tau(   2) = (   0.4800000   0.4800000   0.5440062  )

     number of k points=    40  Methfessel-Paxton smearing, width (Ry)=  0.0400
                       cart. coord. in units 2pi/alat
        k(    1) = (   0.0000000   0.0000000   0.0000000), wk =   0.0092593
        k(    2) = (   0.0000000   0.0000000   0.1531845), wk =   0.0185185
        k(    3) = (   0.0000000   0.0000000   0.3063691), wk =   0.0185185
        k(    4) = (   0.0000000   0.0000000  -0.4595536), wk =   0.0092593
        k(    5) = (   0.0000000   0.1736111   0.0000000), wk =   0.0370370
        k(    6) = (   0.0000000   0.1736111   0.1531845), wk =   0.0740741
        k(    7) = (   0.0000000   0.1736111   0.3063691), wk =   0.0740741
        k(    8) = (   0.0000000   0.1736111  -0.4595536), wk =   0.0370370
        k(    9) = (   0.0000000   0.3472222   0.0000000), wk =   0.0370370
        k(   10) = (   0.0000000   0.3472222   0.1531845), wk =   0.0740741
        k(   11) = (   0.0000000   0.3472222   0.3063691), wk =   0.0740741
        k(   12) = (   0.0000000   0.3472222  -0.4595536), wk =   0.0370370
        k(   13) = (   0.0000000  -0.5208333   0.0000000), wk =   0.0185185
        k(   14) = (   0.0000000  -0.5208333   0.1531845), wk =   0.0370370
        k(   15) = (   0.0000000  -0.5208333   0.3063691), wk =   0.0370370
        k(   16) = (   0.0000000  -0.5208333  -0.4595536), wk =   0.0185185
        k(   17) = (   0.1736111   0.1736111   0.0000000), wk =   0.0370370
        k(   18) = (   0.1736111   0.1736111   0.1531845), wk =   0.0740741
        k(   19) = (   0.1736111   0.1736111   0.3063691), wk =   0.0740741
        k(   20) = (   0.1736111   0.1736111  -0.4595536), wk =   0.0370370
        k(   21) = (   0.1736111   0.3472222   0.0000000), wk =   0.0740741
        k(   22) = (   0.1736111   0.3472222   0.1531845), wk =   0.1481481
        k(   23) = (   0.1736111   0.3472222   0.3063691), wk =   0.1481481
        k(   24) = (   0.1736111   0.3472222  -0.4595536), wk =   0.0740741
        k(   25) = (   0.1736111  -0.5208333   0.0000000), wk =   0.0370370
        k(   26) = (   0.1736111  -0.5208333   0.1531845), wk =   0.0740741
        k(   27) = (   0.1736111  -0.5208333   0.3063691), wk =   0.0740741
        k(   28) = (   0.1736111  -0.5208333  -0.4595536), wk =   0.0370370
        k(   29) = (   0.3472222   0.3472222   0.0000000), wk =   0.0370370
        k(   30) = (   0.3472222   0.3472222   0.1531845), wk =   0.0740741
        k(   31) = (   0.3472222   0.3472222   0.3063691), wk =   0.0740741
        k(   32) = (   0.3472222   0.3472222  -0.4595536), wk =   0.0370370
        k(   33) = (   0.3472222  -0.5208333   0.0000000), wk =   0.0370370
        k(   34) = (   0.3472222  -0.5208333   0.1531845), wk =   0.0740741
        k(   35) = (   0.3472222  -0.5208333   0.3063691), wk =   0.0740741
        k(   36) = (   0.3472222  -0.5208333  -0.4595536), wk =   0.0370370
        k(   37) = (  -0.5208333  -0.5208333   0.0000000), wk =   0.0092593
        k(   38) = (  -0.5208333  -0.5208333   0.1531845), wk =   0.0185185
        k(   39) = (  -0.5208333  -0.5208333   0.3063691), wk =   0.0185185
        k(   40) = (  -0.5208333  -0.5208333  -0.4595536), wk =   0.0092593

     Dense  grid:    21113 G-vectors     FFT dimensions: (  36,  36,  40)

     Estimated max dynamical RAM per process >      48.41 MB

     Initial potential from superposition of free atoms

     starting charge      21.9992, renormalised to      22.0000
     Starting wfcs are   14 randomized atomic wfcs +    1 random wfcs

     total cpu time spent up to now is       38.3 secs

     Self-consistent Calculation

     iteration #  1     ecut=   100.00 Ry     beta= 0.70
     Davidson diagonalization with overlap
     ethr =  1.00E-06,  avg # of iterations = 11.4

     total cpu time spent up to now is       42.9 secs

     total energy              =    -343.94776377 Ry
     estimated scf accuracy    <       0.21693372 Ry

     iteration #  2     ecut=   100.00 Ry     beta= 0.70
     Davidson diagonalization with overlap
     ethr =  9.86E-04,  avg # of iterations =  2.8

     total cpu time spent up to now is       44.9 secs

     total energy              =    -343.68944035 Ry
     estimated scf accuracy    <       3.13806726 Ry

     iteration #  3     ecut=   100.00 Ry     beta= 0.70
     Davidson diagonalization with overlap
     ethr =  9.86E-04,  avg # of iterations =  2.7

     total cpu time spent up to now is       46.8 secs

     total energy              =    -344.08296395 Ry
     estimated scf accuracy    <       0.01056417 Ry

     iteration #  4     ecut=   100.00 Ry     beta= 0.70
     Davidson diagonalization with overlap
     ethr =  4.80E-05,  avg # of iterations =  1.8

     total cpu time spent up to now is       48.4 secs

     total energy              =    -344.08429452 Ry
     estimated scf accuracy    <       0.00044816 Ry

     iteration #  5     ecut=   100.00 Ry     beta= 0.70
     Davidson diagonalization with overlap
     ethr =  2.04E-06,  avg # of iterations =  2.2

     total cpu time spent up to now is       50.1 secs

     total energy              =    -344.08433056 Ry
     estimated scf accuracy    <       0.00005887 Ry

     iteration #  6     ecut=   100.00 Ry     beta= 0.70
     Davidson diagonalization with overlap
     ethr =  2.68E-07,  avg # of iterations =  2.0

     total cpu time spent up to now is       51.7 secs

     total energy              =    -344.08434288 Ry
     estimated scf accuracy    <       0.00001386 Ry

     iteration #  7     ecut=   100.00 Ry     beta= 0.70
     Davidson diagonalization with overlap
     ethr =  6.30E-08,  avg # of iterations =  1.2

     total cpu time spent up to now is       53.1 secs

     total energy              =    -344.08434401 Ry
     estimated scf accuracy    <       0.00000046 Ry

     iteration #  8     ecut=   100.00 Ry     beta= 0.70
     Davidson diagonalization with overlap
     ethr =  2.09E-09,  avg # of iterations =  3.0

     total cpu time spent up to now is       54.8 secs

     total energy              =    -344.08434416 Ry
     estimated scf accuracy    <       0.00000006 Ry

     iteration #  9     ecut=   100.00 Ry     beta= 0.70
     Davidson diagonalization with overlap
     ethr =  2.95E-10,  avg # of iterations =  1.3

     total cpu time spent up to now is       56.3 secs

     total energy              =    -344.08434415 Ry
     estimated scf accuracy    <       0.00000002 Ry

     iteration # 10     ecut=   100.00 Ry     beta= 0.70
     Davidson diagonalization with overlap
     ethr =  8.34E-11,  avg # of iterations =  2.0

     total cpu time spent up to now is       58.0 secs

     End of self-consistent calculation

          k = 0.0000 0.0000 0.0000 (  2623 PWs)   bands (ev):

   -87.6053 -48.0261 -47.9622 -47.9622   2.3552  12.2123  12.4267  14.0809
    14.0809  14.4258  16.2608  20.2126  20.2126  21.8868  23.3998

          k = 0.0000 0.0000 0.1532 (  2635 PWs)   bands (ev):

   -87.6052 -48.0286 -47.9621 -47.9621   2.7683  11.4827  12.5155  13.9068
    13.9068  14.4382  14.9949  20.8002  20.8002  23.2865  24.3539

          k = 0.0000 0.0000 0.3064 (  2650 PWs)   bands (ev):

   -87.6049 -48.0335 -47.9617 -47.9617   3.9377   9.1802  12.7016  13.6032
    13.6032  14.4436  14.4633  22.3007  22.3007  23.0361  26.8490

          k = 0.0000 0.0000-0.4596 (  2634 PWs)   bands (ev):

   -87.6048 -48.0360 -47.9616 -47.9616   5.1017   7.4485  12.7994  13.4680
    13.4680  14.4427  14.4758  22.8980  23.6720  23.6720  26.2281

          k = 0.0000 0.1736 0.0000 (  2647 PWs)   bands (ev):

   -87.6045 -48.0252 -47.9729 -47.9614   2.9026  12.1684  12.4446  13.5020
    14.1177  14.1684  17.1890  17.3067  20.9137  21.9992  25.0076

          k = 0.0000 0.1736 0.1532 (  2643 PWs)   bands (ev):

   -87.6044 -48.0276 -47.9727 -47.9612   3.3059  11.7235  12.3591  13.3446
    13.9484  14.2071  15.7271  17.6694  21.4374  24.2297  25.5115

          k = 0.0000 0.1736 0.3064 (  2630 PWs)   bands (ev):

   -87.6041 -48.0325 -47.9723 -47.9609   4.4388   9.6145  12.6345  13.2342
    13.6746  14.2508  14.6581  18.7677  22.7597  23.8883  25.6707

          k = 0.0000 0.1736-0.4596 (  2642 PWs)   bands (ev):

   -87.6040 -48.0349 -47.9721 -47.9607   5.5308   8.0033  12.9059  13.0447
    13.5513  14.2713  14.4732  19.6391  22.6661  23.8518  25.4468

          k = 0.0000 0.3472 0.0000 (  2662 PWs)   bands (ev):

   -87.6029 -48.0233 -47.9941 -47.9597   4.4975  10.3011  12.7849  12.8212
    13.7341  14.1923  15.3910  19.4434  22.2229  22.7121  25.9037

          k = 0.0000 0.3472 0.1532 (  2639 PWs)   bands (ev):

   -87.6028 -48.0257 -47.9939 -47.9595   4.8650  10.5414  12.1825  13.0299
    13.7675  14.0740  15.4493  17.3245  22.8882  23.0663  25.2282

          k = 0.0000 0.3472 0.3064 (  2628 PWs)   bands (ev):

   -87.6026 -48.0304 -47.9934 -47.9592   5.8639  10.6121  11.3404  13.0537
    13.7981  13.8914  14.9068  16.5575  20.1457  23.8576  26.6893

          k = 0.0000 0.3472-0.4596 (  2634 PWs)   bands (ev):

   -87.6025 -48.0328 -47.9932 -47.9590   6.7196   9.5586  11.7006  12.9103
    13.7229  13.8983  14.5386  17.0887  18.6183  24.3353  27.2382

          k = 0.0000-0.5208 0.0000 (  2644 PWs)   bands (ev):

   -87.6022 -48.0224 -48.0047 -47.9588   6.5194   7.7440  12.5691  12.9696
    13.5447  14.2301  15.3333  21.9461  22.3682  22.6731  24.6206

          k = 0.0000-0.5208 0.1532 (  2642 PWs)   bands (ev):

   -87.6021 -48.0247 -48.0044 -47.9587   6.7689   8.1585  12.3538  12.9771
    13.5891  14.1193  15.2536  19.0501  20.2771  24.6360  25.4205

          k = 0.0000-0.5208 0.3064 (  2642 PWs)   bands (ev):

   -87.6018 -48.0294 -48.0039 -47.9583   7.3909   9.3083  11.7551  12.7587
    13.6800  13.9103  14.9019  16.9987  17.6863  24.6713  27.6894

          k = 0.0000-0.5208-0.4596 (  2648 PWs)   bands (ev):

   -87.6017 -48.0317 -48.0037 -47.9581   7.8147  10.4117  11.3081  12.0765
    13.7266  13.8113  14.5768  16.3165  16.9114  24.6916  29.0230

          k = 0.1736 0.1736 0.0000 (  2637 PWs)   bands (ev):

   -87.6037 -48.0243 -47.9722 -47.9718   3.4412  12.3287  12.3528  13.4046
    13.8615  13.8625  17.2413  18.1391  18.3204  22.2946  28.3729

          k = 0.1736 0.1736 0.1532 (  2633 PWs)   bands (ev):

   -87.6036 -48.0267 -47.9720 -47.9716   3.8346  11.9009  12.4027  13.2543
    13.6346  13.9151  16.3602  17.7416  18.6725  25.2133  27.5151

          k = 0.1736 0.1736 0.3064 (  2636 PWs)   bands (ev):

   -87.6034 -48.0315 -47.9716 -47.9712   4.9319  10.0181  12.5681  13.2547
    13.4820  13.9955  14.9608  18.8899  19.5824  24.7209  24.8644

          k = 0.1736 0.1736-0.4596 (  2638 PWs)   bands (ev):

   -87.6033 -48.0339 -47.9714 -47.9711   5.9596   8.5265  12.6752  13.0703
    13.7219  14.0303  14.5264  19.7449  20.3806  23.2571  23.3374

          k = 0.1736 0.3472 0.0000 (  2650 PWs)   bands (ev):

   -87.6022 -48.0224 -47.9931 -47.9701   5.0045  10.6624  12.7484  12.9382
    13.5529  13.8731  15.4861  19.3406  20.0230  22.8421  25.8096

          k = 0.1736 0.3472 0.1532 (  2640 PWs)   bands (ev):

   -87.6021 -48.0247 -47.9929 -47.9700   5.3625  10.8800  12.2047  13.1720
    13.5473  13.7844  15.6806  17.7639  19.6271  23.6069  25.2098

          k = 0.1736 0.3472 0.3064 (  2633 PWs)   bands (ev):

   -87.6018 -48.0294 -47.9924 -47.9696   6.3307  10.9380  11.3769  13.2175
    13.5900  13.8772  15.3649  16.6163  20.2901  20.6868  26.0053

          k = 0.1736 0.3472-0.4596 (  2640 PWs)   bands (ev):

   -87.6017 -48.0318 -47.9922 -47.9694   7.1488   9.9266  11.5976  13.1242
    13.8958  14.0151  14.6022  17.1393  19.0631  20.9373  24.8943

          k = 0.1736-0.5208 0.0000 (  2646 PWs)   bands (ev):

   -87.6014 -48.0214 -48.0036 -47.9692   6.9249   8.2793  12.7153  13.1403
    13.2297  13.9305  15.2955  20.7064  21.9851  22.9196  23.5976

          k = 0.1736-0.5208 0.1532 (  2636 PWs)   bands (ev):

   -87.6013 -48.0238 -48.0034 -47.9690   7.1796   8.6610  12.2670  13.1992
    13.6115  13.7846  15.2869  19.3517  20.9552  20.9714  23.3794

          k = 0.1736-0.5208 0.3064 (  2636 PWs)   bands (ev):

   -87.6011 -48.0284 -48.0029 -47.9687   7.8198   9.6657  11.5727  13.0339
    13.7850  14.0779  15.1038  17.0465  18.0508  21.4297  24.4578

          k = 0.1736-0.5208-0.4596 (  2640 PWs)   bands (ev):

   -87.6010 -48.0307 -48.0026 -47.9685   8.2666  10.4599  11.1355  12.6469
    14.1639  14.3153  14.6002  16.1634  16.9825  21.7671  25.2061

          k = 0.3472 0.3472 0.0000 (  2642 PWs)   bands (ev):

   -87.6006 -48.0205 -47.9912 -47.9908   6.4480  11.2938  11.8766  13.1191
    13.4199  13.5017  15.3466  17.2929  21.2547  21.3354  24.5937

          k = 0.3472 0.3472 0.1532 (  2641 PWs)   bands (ev):

   -87.6005 -48.0228 -47.9910 -47.9906   6.7738  11.4485  11.6484  12.9567
    13.6417  13.7047  15.7305  17.2065  18.9225  21.6665  24.5670

          k = 0.3472 0.3472 0.3064 (  2643 PWs)   bands (ev):

   -87.6003 -48.0274 -47.9906 -47.9902   7.6362  11.1907  11.3272  13.4081
    13.8932  13.9613  16.3626  16.9305  16.9644  21.7516  22.2112

          k = 0.3472 0.3472-0.4596 (  2640 PWs)   bands (ev):

   -87.6002 -48.0297 -47.9903 -47.9900   8.3307  10.6135  11.2006  13.9718
    13.9905  14.7298  14.7921  16.6140  18.4605  19.5217  21.3152

          k = 0.3472-0.5208 0.0000 (  2632 PWs)   bands (ev):

   -87.5999 -48.0196 -48.0015 -47.9900   8.0191   9.7862  12.3473  13.0284
    13.2505  13.4203  15.1327  17.8489  19.1794  22.0890  25.9496

          k = 0.3472-0.5208 0.1532 (  2644 PWs)   bands (ev):

   -87.5998 -48.0219 -48.0012 -47.9898   8.2916  10.0042  11.7890  13.1672
    13.7061  13.8012  15.2262  17.6324  19.3921  20.2604  22.6731

          k = 0.3472-0.5208 0.3064 (  2654 PWs)   bands (ev):

   -87.5995 -48.0264 -48.0008 -47.9894   8.9850  10.3843  11.1997  13.6763
    13.9838  14.8594  15.4051  16.5400  18.8360  19.0205  20.5239

          k = 0.3472-0.5208-0.4596 (  2652 PWs)   bands (ev):

   -87.5994 -48.0287 -48.0005 -47.9892   9.4967  10.5256  10.8796  14.0489
    14.6570  15.3083  15.3431  15.8344  17.1963  18.9196  20.9353

          k =-0.5208-0.5208 0.0000 (  2616 PWs)   bands (ev):

   -87.5991 -48.0186 -48.0004 -48.0004   8.9475  11.5056  11.5056  12.3463
    13.1969  13.1969  15.0087  16.7792  17.8091  22.1616  28.3289

          k =-0.5208-0.5208 0.1532 (  2628 PWs)   bands (ev):

   -87.5990 -48.0209 -48.0002 -48.0002   9.2678  11.1376  11.1376  12.7604
    13.9546  13.9546  15.0116  16.3628  17.7351  20.9975  24.0755

          k =-0.5208-0.5208 0.3064 (  2664 PWs)   bands (ev):

   -87.5988 -48.0254 -47.9997 -47.9997  10.1148  10.7031  10.7031  13.8262
    15.0174  15.0989  15.5733  15.5733  17.4331  19.8149  20.6390

          k =-0.5208-0.5208-0.4596 (  2656 PWs)   bands (ev):

   -87.5987 -48.0277 -47.9995 -47.9995  10.5445  10.5445  10.7759  14.1515
    14.6294  15.0203  17.0598  17.4468  17.4468  18.1726  18.1726

     the Fermi energy is    16.3527 ev

!    total energy              =    -344.08434416 Ry
     estimated scf accuracy    <          5.9E-10 Ry
     smearing contrib. (-TS)   =       0.00128892 Ry
     internal energy E=F+TS    =    -344.08563308 Ry

     The total energy is F=E-TS. E is the sum of the following terms:
     one-electron contribution =    -222.30030895 Ry
     hartree contribution      =     124.30699778 Ry
     xc contribution           =     -46.13353113 Ry
     ewald contribution        =    -199.95879078 Ry

     convergence has been achieved in  10 iterations

     Forces acting on atoms (cartesian axes, Ry/au):

     atom    1 type  1   force =     0.00000000    0.00000000    0.00000000
     atom    2 type  2   force =     0.00000000    0.00000000    0.00000000

     Total force =     0.000000     Total SCF correction =     0.000000


     Computing stress (Cartesian axis) and pressure

          total   stress  (Ry/bohr**3)                   (kbar)     P=      -27.86
  -0.00028291   0.00000000   0.00000000          -41.62        0.00        0.00
   0.00000000  -0.00028291   0.00000000            0.00      -41.62        0.00
   0.00000000   0.00000000  -0.00000229            0.00        0.00       -0.34


     Writing all to output data dir ./tmp/SiNi-vc-relax.save/ :
     XML data file, charge density, pseudopotentials, collected wavefunctions

     init_run     :      2.44s CPU      2.52s WALL (       2 calls)
     electrons    :     49.05s CPU     50.38s WALL (       5 calls)
     update_pot   :      0.04s CPU      0.05s WALL (       3 calls)
     forces       :      1.29s CPU      1.30s WALL (       5 calls)
     stress       :      4.83s CPU      4.91s WALL (       5 calls)

     Called by init_run:
     wfcinit      :      1.59s CPU      1.65s WALL (       2 calls)
     potinit      :      0.22s CPU      0.23s WALL (       2 calls)
     hinit0       :      0.60s CPU      0.60s WALL (       2 calls)

     Called by electrons:
     c_bands      :     43.83s CPU     44.93s WALL (      27 calls)
     sum_band     :      4.88s CPU      5.09s WALL (      27 calls)
     v_of_rho     :      0.35s CPU      0.38s WALL (      29 calls)
     mix_rho      :      0.04s CPU      0.04s WALL (      27 calls)

     Called by c_bands:
     init_us_2    :      1.39s CPU      1.45s WALL (    2640 calls)
     cegterg      :     41.66s CPU     42.72s WALL (    1080 calls)

     Called by *egterg:
     cdiaghg      :      0.58s CPU      0.60s WALL (    3952 calls)
     h_psi        :     31.75s CPU     32.72s WALL (    4272 calls)
     g_psi        :      0.21s CPU      0.22s WALL (    3112 calls)

     Called by h_psi:
     h_psi:calbec :      3.95s CPU      4.03s WALL (    4272 calls)
     vloc_psi     :     23.99s CPU     24.84s WALL (    4272 calls)
                                        0.00s GPU  (    4272 calls)
     add_vuspsi   :      3.62s CPU      3.68s WALL (    4272 calls)

     General routines
     calbec       :      8.07s CPU      8.20s WALL (    7672 calls)
     fft          :      0.16s CPU      0.17s WALL (     416 calls)
     ffts         :      0.01s CPU      0.01s WALL (      27 calls)
     fftw         :     24.39s CPU     25.48s WALL (  105614 calls)


     PWSCF        :     57.74s CPU     59.30s WALL


   This run was terminated on:  20:38: 7   8Jan2026            

=------------------------------------------------------------------------------=
   JOB DONE.
=------------------------------------------------------------------------------=
