
     Program PWSCF v.7.5 starts on  7Jan2026 at 21:26:40 

     This program is part of the open-source Quantum ESPRESSO suite
     for quantum simulation of materials; please cite
         "P. Giannozzi et al., J. Phys.:Condens. Matter 21 395502 (2009);
         "P. Giannozzi et al., J. Phys.:Condens. Matter 29 465901 (2017);
         "P. Giannozzi et al., J. Chem. Phys. 152 154105 (2020);
          URL http://www.quantum-espresso.org", 
     in publications or presentations arising from this work. More details at
     http://www.quantum-espresso.org/quote

     Serial version
     1025 MiB available memory on the printing compute node when the environment starts

     Waiting for input...
     Reading input from standard input

     Current dimensions of program PWSCF are:
     Max number of different atomic species (ntypx) = 10
     Max number of k-points (npk) =  40000
     Max angular momentum in pseudopotentials (lmaxx) =  4
     Message from routine setup:
     using ibrav=0 with symmetry is DISCOURAGED, use correct ibrav instead


     G-vector sticks info
     --------------------
     sticks:   dense  smooth     PW     G-vecs:    dense   smooth      PW
     Sum         869     869    253                20759    20759    3311

     Using Slab Decomposition



     bravais-lattice index     =            0
     lattice parameter (alat)  =       5.3733  a.u.
     unit-cell volume          =     132.7418 (a.u.)^3
     number of atoms/cell      =            2
     number of atomic types    =            2
     number of electrons       =        22.00
     number of Kohn-Sham states=           15
     kinetic-energy cutoff     =     110.0000  Ry
     charge density cutoff     =     440.0000  Ry
     scf convergence threshold =      1.0E-06
     mixing beta               =       0.7000
     number of iterations used =            8  plain     mixing
     energy convergence thresh.=      1.0E-04
     force convergence thresh. =      1.0E-03
     press convergence thresh. =      5.0E-01
     Exchange-correlation= PBE
                           (   1   4   3   4   0   0   0)
     nstep                     =           50


     celldm(1)=   5.373304  celldm(2)=   0.000000  celldm(3)=   0.000000
     celldm(4)=   0.000000  celldm(5)=   0.000000  celldm(6)=   0.000000

     crystal axes: (cart. coord. in units of alat)
               a(1) = (   0.925000   0.000000   0.000000 )  
               a(2) = (   0.000000   0.925000   0.000000 )  
               a(3) = (   0.000000   0.000000   1.000000 )  

     reciprocal axes: (cart. coord. in units 2 pi/alat)
               b(1) = (  1.081081  0.000000  0.000000 )  
               b(2) = (  0.000000  1.081081  0.000000 )  
               b(3) = (  0.000000  0.000000  1.000000 )  


     PseudoPot. # 1 for Si read from file:
     ./PSEUDO/Si.upf
     MD5 check sum: 02fab3f35e82123ef5bf1cb05d5b1a5e
     Pseudo is Norm-conserving + core correction, Zval =  4.0
     Generated using ONCVPSP code by D. R. Hamann
     Using radial grid of 1510 points,  6 beta functions with: 
                l(1) =   0
                l(2) =   0
                l(3) =   1
                l(4) =   1
                l(5) =   2
                l(6) =   2

     PseudoPot. # 2 for Ni read from file:
     ./PSEUDO/Ni.upf
     MD5 check sum: 2b0a79d100e227970886d6963e34175b
     Pseudo is Norm-conserving + core correction, Zval = 18.0
     Generated using ONCVPSP code by D. R. Hamann
     Using radial grid of 1372 points,  6 beta functions with: 
                l(1) =   0
                l(2) =   0
                l(3) =   1
                l(4) =   1
                l(5) =   2
                l(6) =   2

     atomic species   valence    mass     pseudopotential
     Si                4.00    28.08550     Si( 1.00)
     Ni               18.00    58.69340     Ni( 1.00)

     16 Sym. Ops., with inversion, found



   Cartesian axes

     site n.     atom                  positions (alat units)
         1        Si     tau(   1) = (   0.0000000   0.0000000   0.0000000  )
         2        Ni     tau(   2) = (   0.4625000   0.4625000   0.5000000  )

     number of k points=    40  Methfessel-Paxton smearing, width (Ry)=  0.0400
                       cart. coord. in units 2pi/alat
        k(    1) = (   0.0000000   0.0000000   0.0000000), wk =   0.0058309
        k(    2) = (   0.0000000   0.0000000   0.1428571), wk =   0.0116618
        k(    3) = (   0.0000000   0.0000000   0.2857143), wk =   0.0116618
        k(    4) = (   0.0000000   0.0000000   0.4285714), wk =   0.0116618
        k(    5) = (   0.0000000   0.1544402   0.0000000), wk =   0.0233236
        k(    6) = (   0.0000000   0.1544402   0.1428571), wk =   0.0466472
        k(    7) = (   0.0000000   0.1544402   0.2857143), wk =   0.0466472
        k(    8) = (   0.0000000   0.1544402   0.4285714), wk =   0.0466472
        k(    9) = (   0.0000000   0.3088803   0.0000000), wk =   0.0233236
        k(   10) = (   0.0000000   0.3088803   0.1428571), wk =   0.0466472
        k(   11) = (   0.0000000   0.3088803   0.2857143), wk =   0.0466472
        k(   12) = (   0.0000000   0.3088803   0.4285714), wk =   0.0466472
        k(   13) = (   0.0000000   0.4633205   0.0000000), wk =   0.0233236
        k(   14) = (   0.0000000   0.4633205   0.1428571), wk =   0.0466472
        k(   15) = (   0.0000000   0.4633205   0.2857143), wk =   0.0466472
        k(   16) = (   0.0000000   0.4633205   0.4285714), wk =   0.0466472
        k(   17) = (   0.1544402   0.1544402   0.0000000), wk =   0.0233236
        k(   18) = (   0.1544402   0.1544402   0.1428571), wk =   0.0466472
        k(   19) = (   0.1544402   0.1544402   0.2857143), wk =   0.0466472
        k(   20) = (   0.1544402   0.1544402   0.4285714), wk =   0.0466472
        k(   21) = (   0.1544402   0.3088803   0.0000000), wk =   0.0466472
        k(   22) = (   0.1544402   0.3088803   0.1428571), wk =   0.0932945
        k(   23) = (   0.1544402   0.3088803   0.2857143), wk =   0.0932945
        k(   24) = (   0.1544402   0.3088803   0.4285714), wk =   0.0932945
        k(   25) = (   0.1544402   0.4633205   0.0000000), wk =   0.0466472
        k(   26) = (   0.1544402   0.4633205   0.1428571), wk =   0.0932945
        k(   27) = (   0.1544402   0.4633205   0.2857143), wk =   0.0932945
        k(   28) = (   0.1544402   0.4633205   0.4285714), wk =   0.0932945
        k(   29) = (   0.3088803   0.3088803   0.0000000), wk =   0.0233236
        k(   30) = (   0.3088803   0.3088803   0.1428571), wk =   0.0466472
        k(   31) = (   0.3088803   0.3088803   0.2857143), wk =   0.0466472
        k(   32) = (   0.3088803   0.3088803   0.4285714), wk =   0.0466472
        k(   33) = (   0.3088803   0.4633205   0.0000000), wk =   0.0466472
        k(   34) = (   0.3088803   0.4633205   0.1428571), wk =   0.0932945
        k(   35) = (   0.3088803   0.4633205   0.2857143), wk =   0.0932945
        k(   36) = (   0.3088803   0.4633205   0.4285714), wk =   0.0932945
        k(   37) = (   0.4633205   0.4633205   0.0000000), wk =   0.0233236
        k(   38) = (   0.4633205   0.4633205   0.1428571), wk =   0.0466472
        k(   39) = (   0.4633205   0.4633205   0.2857143), wk =   0.0466472
        k(   40) = (   0.4633205   0.4633205   0.4285714), wk =   0.0466472

     Dense  grid:    20759 G-vectors     FFT dimensions: (  36,  36,  36)

     Estimated max dynamical RAM per process >      47.31 MB

     Initial potential from superposition of free atoms

     starting charge      21.9992, renormalised to      22.0000
     Starting wfcs are   14 randomized atomic wfcs +    1 random wfcs

     total cpu time spent up to now is        1.8 secs

     Self-consistent Calculation

     iteration #  1     ecut=   110.00 Ry     beta= 0.70
     Davidson diagonalization with overlap
     ethr =  1.00E-02,  avg # of iterations =  3.9

     Threshold (ethr) on eigenvalues was too large:
     Diagonalizing with lowered threshold

     Davidson diagonalization with overlap
     ethr =  5.13E-04,  avg # of iterations =  1.2

     total cpu time spent up to now is        5.0 secs

     total energy              =    -343.99799011 Ry
     estimated scf accuracy    <       0.10811695 Ry

     iteration #  2     ecut=   110.00 Ry     beta= 0.70
     Davidson diagonalization with overlap
     ethr =  4.91E-04,  avg # of iterations =  2.6

     total cpu time spent up to now is        6.7 secs

     total energy              =    -343.93570510 Ry
     estimated scf accuracy    <       0.84239634 Ry

     iteration #  3     ecut=   110.00 Ry     beta= 0.70
     Davidson diagonalization with overlap
     ethr =  4.91E-04,  avg # of iterations =  2.2

     total cpu time spent up to now is        8.2 secs

     total energy              =    -344.05985696 Ry
     estimated scf accuracy    <       0.00183213 Ry

     iteration #  4     ecut=   110.00 Ry     beta= 0.70
     Davidson diagonalization with overlap
     ethr =  8.33E-06,  avg # of iterations =  3.3

     total cpu time spent up to now is        9.8 secs

     total energy              =    -344.06018713 Ry
     estimated scf accuracy    <       0.00026297 Ry

     iteration #  5     ecut=   110.00 Ry     beta= 0.70
     Davidson diagonalization with overlap
     ethr =  1.20E-06,  avg # of iterations =  2.0

     total cpu time spent up to now is       11.1 secs

     total energy              =    -344.06023896 Ry
     estimated scf accuracy    <       0.00001366 Ry

     iteration #  6     ecut=   110.00 Ry     beta= 0.70
     Davidson diagonalization with overlap
     ethr =  6.21E-08,  avg # of iterations =  1.8

     total cpu time spent up to now is       12.3 secs

     total energy              =    -344.06023997 Ry
     estimated scf accuracy    <       0.00000141 Ry

     iteration #  7     ecut=   110.00 Ry     beta= 0.70
     Davidson diagonalization with overlap
     ethr =  6.43E-09,  avg # of iterations =  2.1

     total cpu time spent up to now is       13.7 secs

     End of self-consistent calculation

          k = 0.0000 0.0000 0.0000 (  2613 PWs)   bands (ev):

   -84.6602 -45.0833 -45.0310 -45.0310   4.2845  14.6593  14.8209  17.0325
    17.0325  17.3169  20.7817  23.6727  23.6727  26.3795  27.0380

          k = 0.0000 0.0000 0.1429 (  2582 PWs)   bands (ev):

   -84.6598 -45.0889 -45.0305 -45.0305   4.6579  14.2723  14.9230  16.8352
    16.8352  17.3338  19.2595  24.2244  24.2244  26.8957  28.4228

          k = 0.0000 0.0000 0.2857 (  2590 PWs)   bands (ev):

   -84.6590 -45.1016 -45.0296 -45.0296   5.7463  12.6350  15.1648  16.4497
    16.4497  17.3720  17.9895  25.6755  25.6755  26.5441  30.8678

          k = 0.0000 0.0000 0.4286 (  2594 PWs)   bands (ev):

   -84.6584 -45.1117 -45.0289 -45.0289   7.3657  10.3131  15.3729  16.1818
    16.1818  17.4029  17.7902  26.2277  27.6606  27.6606  30.6637

          k = 0.0000 0.1544 0.0000 (  2591 PWs)   bands (ev):

   -84.6591 -45.0822 -45.0441 -45.0299   4.7247  14.6184  14.8594  16.6106
    17.0613  17.0655  21.0941  21.5707  24.2863  26.3886  28.9271

          k = 0.0000 0.1544 0.1429 (  2591 PWs)   bands (ev):

   -84.6588 -45.0877 -45.0436 -45.0295   5.0914  14.4267  14.8282  16.3762
    16.8636  17.1058  19.8443  21.5876  24.7992  27.8689  29.7701

          k = 0.0000 0.1544 0.2857 (  2589 PWs)   bands (ev):

   -84.6580 -45.1002 -45.0426 -45.0285   6.1570  12.9135  15.0929  16.1002
    16.5038  17.1578  18.2715  22.6494  26.1524  28.0001  30.9776

          k = 0.0000 0.1544 0.4286 (  2601 PWs)   bands (ev):

   -84.6574 -45.1102 -45.0418 -45.0278   7.7189  10.7075  15.4191  15.8694
    16.2499  17.1991  17.8288  23.8631  27.2465  27.9401  29.4723

          k = 0.0000 0.3089 0.0000 (  2579 PWs)   bands (ev):

   -84.6568 -45.0795 -45.0735 -45.0274   6.0152  13.4149  15.2012  15.9321
    16.5730  17.1405  18.8872  23.3858  25.8799  26.2302  30.5448

          k = 0.0000 0.3089 0.1429 (  2582 PWs)   bands (ev):

   -84.6564 -45.0850 -45.0730 -45.0270   6.3596  13.6033  14.8783  15.8535
    16.6023  16.9916  19.0355  21.3926  26.2990  27.6304  30.3535

          k = 0.0000 0.3089 0.2857 (  2588 PWs)   bands (ev):

   -84.6556 -45.0972 -45.0717 -45.0261   7.3465  13.5640  14.1471  15.8330
    16.5953  16.7600  18.5596  20.4792  25.9951  27.3636  30.2697

          k = 0.0000 0.3089 0.4286 (  2585 PWs)   bands (ev):

   -84.6550 -45.1071 -45.0708 -45.0253   8.7120  11.8200  14.6819  15.6682
    16.4068  16.7817  17.8801  21.3864  23.7310  28.5466  30.7813

          k = 0.0000 0.4633 0.0000 (  2566 PWs)   bands (ev):

   -84.6548 -45.0971 -45.0774 -45.0255   8.0324  10.8598  15.5087  15.5166
    16.2392  17.2015  18.4940  25.7901  26.0483  28.1141  28.7356

          k = 0.0000 0.4633 0.1429 (  2582 PWs)   bands (ev):

   -84.6545 -45.0965 -45.0828 -45.0251   8.3215  11.1507  15.1972  15.6232
    16.2838  17.0604  18.4667  23.1160  25.8591  28.3581  29.2243

          k = 0.0000 0.4633 0.2857 (  2590 PWs)   bands (ev):

   -84.6537 -45.0951 -45.0948 -45.0241   9.1063  11.9689  14.4822  15.6221
    16.3862  16.7646  18.2701  20.9964  23.1182  28.8151  31.0241

          k = 0.0000 0.4633 0.4286 (  2591 PWs)   bands (ev):

   -84.6531 -45.1045 -45.0939 -45.0233  10.0123  13.0041  13.6305  15.2168
    16.4720  16.5443  17.8609  20.3946  21.2246  29.1195  32.6308

          k = 0.1544 0.1544 0.0000 (  2568 PWs)   bands (ev):

   -84.6581 -45.0810 -45.0433 -45.0426   5.1584  14.7380  14.7909  16.5238
    16.7616  16.8433  21.0771  22.1658  22.2677  26.9009  31.2056

          k = 0.1544 0.1544 0.1429 (  2589 PWs)   bands (ev):

   -84.6577 -45.0865 -45.0428 -45.0422   5.5184  14.5481  14.8314  16.2908
    16.5999  16.8170  20.4051  21.5277  22.6283  29.4154  31.0396

          k = 0.1544 0.1544 0.2857 (  2592 PWs)   bands (ev):

   -84.6569 -45.0989 -45.0417 -45.0412   6.5608  13.1684  15.0673  16.1281
    16.2228  16.9018  18.6131  22.5968  23.6509  29.6960  30.7631

          k = 0.1544 0.1544 0.4286 (  2600 PWs)   bands (ev):

   -84.6563 -45.1088 -45.0409 -45.0404   8.0664  11.0858  15.3418  15.7303
    16.3780  16.9626  17.9079  23.7555  25.0782  27.8248  28.1860

          k = 0.1544 0.3089 0.0000 (  2578 PWs)   bands (ev):

   -84.6557 -45.0784 -45.0722 -45.0403   6.4276  13.6498  15.1426  15.9984
    16.3440  16.8588  19.0623  23.0023  23.9425  27.1436  31.6545

          k = 0.1544 0.3089 0.1429 (  2581 PWs)   bands (ev):

   -84.6554 -45.0838 -45.0717 -45.0399   6.7647  13.8155  14.8921  15.9245
    16.3623  16.6836  19.3160  21.7694  23.4131  29.1140  30.3871

          k = 0.1544 0.3089 0.2857 (  2588 PWs)   bands (ev):

   -84.6546 -45.0960 -45.0705 -45.0389   7.7277  13.7653  14.1981  15.9787
    16.2687  16.6071  19.0483  20.5951  24.2414  26.5628  31.4602

          k = 0.1544 0.3089 0.4286 (  2586 PWs)   bands (ev):

   -84.6540 -45.1057 -45.0695 -45.0381   9.0436  12.1236  14.5033  15.8192
    16.5525  16.6758  18.0351  21.5481  24.1326  25.2841  29.3279

          k = 0.1544 0.4633 0.0000 (  2589 PWs)   bands (ev):

   -84.6538 -45.0957 -45.0762 -45.0383   8.3923  11.2155  15.5643  15.6130
    16.0215  16.9374  18.4837  24.4535  26.1696  27.2155  29.0750

          k = 0.1544 0.4633 0.1429 (  2586 PWs)   bands (ev):

   -84.6535 -45.0950 -45.0816 -45.0378   8.6738  11.4952  15.0768  15.7710
    16.2886  16.7672  18.5124  23.4328  25.0090  26.5698  28.2169

          k = 0.1544 0.4633 0.2857 (  2596 PWs)   bands (ev):

   -84.6527 -45.0938 -45.0935 -45.0368   9.4387  12.2572  14.3117  15.7864
    16.5066  16.6794  18.4673  21.1581  23.4871  25.6027  29.2534

          k = 0.1544 0.4633 0.4286 (  2590 PWs)   bands (ev):

   -84.6521 -45.1032 -45.0926 -45.0360  10.3296  13.1295  13.5055  15.3902
    16.7794  16.8667  17.9981  20.3540  21.3736  26.3195  30.2760

          k = 0.3089 0.3089 0.0000 (  2588 PWs)   bands (ev):

   -84.6534 -45.0757 -45.0698 -45.0688   7.6224  14.0456  14.4507  16.0670
    16.1779  16.4161  18.9300  21.1599  25.2798  26.6594  29.3066

          k = 0.3089 0.3089 0.1429 (  2587 PWs)   bands (ev):

   -84.6530 -45.0811 -45.0692 -45.0683   7.9355  14.1762  14.3578  15.8410
    16.2791  16.3804  19.3658  21.2104  22.9507  27.3650  30.5905

          k = 0.3089 0.3089 0.2857 (  2579 PWs)   bands (ev):

   -84.6522 -45.0931 -45.0680 -45.0672   8.8178  13.9113  14.1530  15.8609
    16.3692  16.4853  20.1534  20.5048  21.6223  27.4726  27.7828

          k = 0.3089 0.3089 0.4286 (  2583 PWs)   bands (ev):

   -84.6516 -45.1027 -45.0670 -45.0663   9.9715  12.8058  13.9959  16.3593
    16.3974  17.0096  18.4342  21.8373  22.1317  24.7021  25.9240

          k = 0.3089 0.4633 0.0000 (  2576 PWs)   bands (ev):

   -84.6515 -45.0924 -45.0736 -45.0669   9.3936  12.2138  14.9941  15.8389
    15.9594  16.4186  18.3781  21.9407  24.2502  26.8160  29.7423

          k = 0.3089 0.4633 0.1429 (  2583 PWs)   bands (ev):

   -84.6511 -45.0919 -45.0789 -45.0664   9.6539  12.4307  14.5558  15.9081
    16.3489  16.4735  18.5203  22.0245  24.3496  24.5638  27.8707

          k = 0.3089 0.4633 0.2857 (  2584 PWs)   bands (ev):

   -84.6504 -45.0908 -45.0905 -45.0653  10.3603  12.8915  13.9032  16.1585
    16.4353  17.1382  18.8635  21.5148  22.2627  24.4943  25.5658

          k = 0.3089 0.4633 0.4286 (  2585 PWs)   bands (ev):

   -84.6498 -45.1002 -45.0895 -45.0644  11.1948  13.1750  13.2788  16.3277
    17.2689  17.5556  18.7211  20.0777  21.5699  23.4289  26.3967

          k = 0.4633 0.4633 0.0000 (  2586 PWs)   bands (ev):

   -84.6496 -45.0899 -45.0897 -45.0715  10.6612  13.3711  14.0909  15.5448
    16.0140  16.0734  18.1535  20.9494  21.9164  27.2246  32.4466

          k = 0.4633 0.4633 0.1429 (  2577 PWs)   bands (ev):

   -84.6493 -45.0894 -45.0892 -45.0767  10.9034  13.4060  13.7640  15.4660
    16.6122  16.6167  18.2555  20.8022  21.9471  25.4348  29.1636

          k = 0.4633 0.4633 0.2857 (  2582 PWs)   bands (ev):

   -84.6485 -45.0885 -45.0881 -45.0880  11.5445  13.2857  13.2887  16.2038
    17.4136  17.5287  18.8789  20.2007  21.6817  23.5427  25.9415

          k = 0.4633 0.4633 0.4286 (  2592 PWs)   bands (ev):

   -84.6479 -45.0979 -45.0872 -45.0870  12.2464  13.0129  13.0640  17.4693
    17.6772  18.4648  19.3001  20.2339  20.4420  23.1158  23.5099

     the Fermi energy is    20.1333 ev

!    total energy              =    -344.06024013 Ry
     estimated scf accuracy    <       0.00000004 Ry
     smearing contrib. (-TS)   =      -0.00063996 Ry
     internal energy E=F+TS    =    -344.05960018 Ry

     The total energy is F=E-TS. E is the sum of the following terms:
     one-electron contribution =    -203.49226697 Ry
     hartree contribution      =     117.33442432 Ry
     xc contribution           =     -46.38702162 Ry
     ewald contribution        =    -211.51473591 Ry

     convergence has been achieved in   7 iterations

     Forces acting on atoms (cartesian axes, Ry/au):

     atom    1 type  1   force =     0.00000000    0.00000000    0.00000000
     atom    2 type  2   force =     0.00000000    0.00000000    0.00000000

     Total force =     0.000000     Total SCF correction =     0.000000


     Computing stress (Cartesian axis) and pressure

          total   stress  (Ry/bohr**3)                   (kbar)     P=      383.24
   0.00254157   0.00000000   0.00000000          373.88        0.00        0.00
   0.00000000   0.00254157   0.00000000            0.00      373.88        0.00
   0.00000000   0.00000000   0.00273245            0.00        0.00      401.96


     BFGS Geometry Optimization
     Energy error            =      2.4E-02 Ry
     Gradient error          =      0.0E+00 Ry/Bohr
     Cell gradient error     =      4.0E+02 kbar

     number of scf cycles    =   1
     number of bfgs steps    =   0

     enthalpy           new  =    -344.0602401322 Ry

     new trust radius        =       0.1574079532 bohr
     new conv_thr            =       0.0000010000 Ry

     new unit-cell volume =    141.80954 a.u.^3 (    21.01401 Ang^3 )
     density =      6.85732 g/cm^3

CELL_PARAMETERS (alat=  5.37330365)
   0.925000000   0.000000000   0.000000000
   0.000000000   0.925000000   0.000000000
   0.000000000   0.000000000   1.068311350

ATOMIC_POSITIONS (crystal)
Si               0.0000000000        0.0000000000        0.0000000000
Ni               0.5000000000        0.5000000000        0.5000000000



     Writing config-only to output data dir ./tmp/SiNi-relax.save/ :
     XML data file
     NEW-OLD atomic charge density approx. for the potential
     New effective cutoffs (rho, wfc):  439.07  109.96

     total cpu time spent up to now is       14.9 secs

     Self-consistent Calculation

     iteration #  1     ecut=   110.00 Ry     beta= 0.70
     Davidson diagonalization with overlap
     ethr =  1.00E-06,  avg # of iterations =  8.6

     total cpu time spent up to now is       18.8 secs

     total energy              =    -344.07650702 Ry
     estimated scf accuracy    <       0.00265097 Ry

     iteration #  2     ecut=   110.00 Ry     beta= 0.70
     Davidson diagonalization with overlap
     ethr =  1.20E-05,  avg # of iterations =  2.8

     total cpu time spent up to now is       21.0 secs

     total energy              =    -344.07498978 Ry
     estimated scf accuracy    <       0.02391554 Ry

     iteration #  3     ecut=   110.00 Ry     beta= 0.70
     Davidson diagonalization with overlap
     ethr =  1.20E-05,  avg # of iterations =  2.2

     total cpu time spent up to now is       22.7 secs

     total energy              =    -344.07816934 Ry
     estimated scf accuracy    <       0.00001052 Ry

     iteration #  4     ecut=   110.00 Ry     beta= 0.70
     Davidson diagonalization with overlap
     ethr =  4.78E-08,  avg # of iterations =  3.9

     total cpu time spent up to now is       24.8 secs

     total energy              =    -344.07817662 Ry
     estimated scf accuracy    <       0.00000980 Ry

     iteration #  5     ecut=   110.00 Ry     beta= 0.70
     Davidson diagonalization with overlap
     ethr =  4.45E-08,  avg # of iterations =  1.0

     total cpu time spent up to now is       26.2 secs

     total energy              =    -344.07817650 Ry
     estimated scf accuracy    <       0.00000169 Ry

     iteration #  6     ecut=   110.00 Ry     beta= 0.70
     Davidson diagonalization with overlap
     ethr =  7.68E-09,  avg # of iterations =  2.0

     total cpu time spent up to now is       27.8 secs

     End of self-consistent calculation

          k = 0.0000 0.0000 0.0000 (  2613 PWs)   bands (ev):

   -85.9126 -46.3622 -46.2578 -46.2578   3.4408  13.5446  13.8505  15.7638
    15.7638  16.2187  17.9008  22.8208  22.8208  23.9542  25.5949

          k = 0.0000 0.0000 0.1337 (  2582 PWs)   bands (ev):

   -85.9125 -46.3647 -46.2576 -46.2576   3.7610  13.0044  13.9228  15.6291
    15.6291  16.2284  16.8887  23.2792  23.2792  25.4667  25.8595

          k = 0.0000 0.0000 0.2674 (  2590 PWs)   bands (ev):

   -85.9122 -46.3703 -46.2572 -46.2572   4.6869  11.1948  14.0921  15.3561
    15.3561  16.1664  16.2503  24.5076  24.5076  25.1602  28.7373

          k = 0.0000 0.0000 0.4012 (  2594 PWs)   bands (ev):

   -85.9120 -46.3749 -46.2569 -46.2569   5.9938   9.1185  14.2354  15.1604
    15.1604  16.0913  16.2679  24.8956  26.1239  26.1239  29.4045

          k = 0.0000 0.1544 0.0000 (  2591 PWs)   bands (ev):

   -85.9116 -46.3610 -46.2705 -46.2567   3.8790  13.6206  13.8347  15.1964
    15.7975  15.9973  18.8256  19.9908  23.3835  24.0319  27.4028

          k = 0.0000 0.1544 0.1337 (  2591 PWs)   bands (ev):

   -85.9115 -46.3635 -46.2703 -46.2566   4.1931  13.1897  13.8593  15.0552
    15.6662  16.0199  17.6143  20.3648  23.8087  25.9021  27.5785

          k = 0.0000 0.1544 0.2674 (  2589 PWs)   bands (ev):

   -85.9112 -46.3691 -46.2699 -46.2562   5.0980  11.5033  14.0675  14.9348
    15.4090  16.0562  16.4955  21.2599  24.9448  26.6908  28.9914

          k = 0.0000 0.1544 0.4012 (  2601 PWs)   bands (ev):

   -85.9110 -46.3735 -46.2696 -46.2559   6.3552   9.5322  14.3064  14.8126
    15.2245  16.0822  16.1529  22.2321  26.0305  26.3763  27.8575

          k = 0.0000 0.3089 0.0000 (  2579 PWs)   bands (ev):

   -85.9093 -46.3584 -46.2991 -46.2544   5.1665  12.5879  14.1217  14.4491
    15.5639  15.8738  17.6347  20.6856  24.1238  24.8762  28.6806

          k = 0.0000 0.3089 0.1337 (  2582 PWs)   bands (ev):

   -85.9092 -46.3608 -46.2989 -46.2542   5.4602  12.7372  13.6112  14.5568
    15.5784  15.7789  17.7138  19.1402  25.2148  25.7783  27.7093

          k = 0.0000 0.3089 0.2674 (  2588 PWs)   bands (ev):

   -85.9089 -46.3662 -46.2983 -46.2538   6.2936  12.2588  13.1643  14.6236
    15.5172  15.6739  16.9088  18.8411  24.2179  26.0803  28.6065

          k = 0.0000 0.3089 0.4012 (  2585 PWs)   bands (ev):

   -85.9087 -46.3706 -46.2979 -46.2535   7.3865  10.7008  13.5956  14.5178
    15.3716  15.6989  16.2672  19.6541  22.2746  27.0025  29.1534

          k = 0.0000 0.4633 0.0000 (  2566 PWs)   bands (ev):

   -85.9074 -46.3562 -46.3220 -46.2525   7.1915  10.0160  14.0274  14.4198
    15.2616  15.9359  17.2722  23.0733  24.2013  25.9939  26.9848

          k = 0.0000 0.4633 0.1337 (  2582 PWs)   bands (ev):

   -85.9073 -46.3586 -46.3217 -46.2523   7.4347  10.2572  13.8119  14.4640
    15.2910  15.8441  17.2152  20.8846  23.5666  27.1545  27.1738

          k = 0.0000 0.4633 0.2674 (  2590 PWs)   bands (ev):

   -85.9070 -46.3639 -46.3211 -46.2520   8.0852  10.9326  13.2400  14.4303
    15.3582  15.6475  16.8907  19.0614  21.1684  27.4794  29.4272

          k = 0.0000 0.4633 0.4012 (  2591 PWs)   bands (ev):

   -85.9068 -46.3682 -46.3206 -46.2516   8.7982  11.8167  12.4979  14.0918
    15.4147  15.4971  16.3536  18.6181  19.6025  27.6942  30.8884

          k = 0.1544 0.1544 0.0000 (  2568 PWs)   bands (ev):

   -85.9106 -46.3598 -46.2697 -46.2691   4.3116  13.7425  13.8212  15.0642
    15.5609  15.7347  19.5751  19.8858  21.1322  24.3230  30.0937

          k = 0.1544 0.1544 0.1337 (  2589 PWs)   bands (ev):

   -85.9104 -46.3623 -46.2695 -46.2690   4.6196  13.3386  13.8926  14.9530
    15.3752  15.7651  18.2123  20.2585  21.4714  26.5525  29.8244

          k = 0.1544 0.1544 0.2674 (  2592 PWs)   bands (ev):

   -85.9102 -46.3678 -46.2691 -46.2686   5.5035  11.7906  14.0800  14.9915
    15.0426  15.8205  16.8594  21.1602  22.3282  28.2461  28.9333

          k = 0.1544 0.1544 0.4012 (  2600 PWs)   bands (ev):

   -85.9099 -46.3722 -46.2687 -46.2682   6.7128   9.9296  14.3291  14.6272
    15.2717  15.8609  16.2578  22.1005  23.4349  26.5805  26.8159

          k = 0.1544 0.3089 0.0000 (  2578 PWs)   bands (ev):

   -85.9083 -46.3572 -46.2979 -46.2669   5.5807  12.8171  14.1303  14.5277
    15.3542  15.5616  17.7867  21.2598  21.8721  24.7295  30.3566

          k = 0.1544 0.3089 0.1337 (  2581 PWs)   bands (ev):

   -85.9081 -46.3596 -46.2976 -46.2668   5.8681  12.9478  13.6888  14.6402
    15.3138  15.4826  17.9924  19.5389  22.1660  26.8801  27.7810

          k = 0.1544 0.3089 0.2674 (  2588 PWs)   bands (ev):

   -85.9079 -46.3650 -46.2971 -46.2663   6.6805  12.4831  13.2485  14.7878
    15.1565  15.5188  17.3821  18.9728  22.8517  24.7265  29.6549

          k = 0.1544 0.3089 0.4012 (  2586 PWs)   bands (ev):

   -85.9076 -46.3693 -46.2967 -46.2660   7.7328  11.0262  13.4898  14.6898
    15.4289  15.5697  16.4243  19.8181  22.6880  23.6409  28.0144

          k = 0.1544 0.4633 0.0000 (  2589 PWs)   bands (ev):

   -85.9064 -46.3551 -46.3206 -46.2650   7.5608  10.3723  14.1463  14.5260
    15.0470  15.6450  17.2556  23.2456  23.4744  25.4825  26.3986

          k = 0.1544 0.4633 0.1337 (  2586 PWs)   bands (ev):

   -85.9063 -46.3574 -46.3204 -46.2648   7.7977  10.6040  13.7955  14.6439
    15.2179  15.5304  17.2591  21.2526  23.6219  24.2564  26.9034

          k = 0.1544 0.4633 0.2674 (  2596 PWs)   bands (ev):

   -85.9060 -46.3627 -46.3198 -46.2644   8.4323  11.2328  13.1478  14.6292
    15.3577  15.5660  17.1234  19.2143  21.5330  24.2011  27.8559

          k = 0.1544 0.4633 0.4012 (  2590 PWs)   bands (ev):

   -85.9058 -46.3669 -46.3193 -46.2640   9.1337  11.9706  12.4631  14.2953
    15.6109  15.7637  16.5077  18.5842  19.7823  24.7250  28.6766

          k = 0.3089 0.3089 0.0000 (  2588 PWs)   bands (ev):

   -85.9059 -46.3546 -46.2955 -46.2946   6.7859  13.1878  13.6110  14.6180
    15.1016  15.1922  17.6412  19.8779  22.5958  25.0024  27.1236

          k = 0.3089 0.3089 0.1337 (  2587 PWs)   bands (ev):

   -85.9058 -46.3569 -46.2953 -46.2944   7.0522  13.2419  13.4792  14.4710
    15.1323  15.2616  18.0247  19.8997  20.6448  26.0116  28.1590

          k = 0.3089 0.3089 0.2674 (  2579 PWs)   bands (ev):

   -85.9056 -46.3622 -46.2948 -46.2940   7.7943  12.7892  13.2261  14.6732
    15.1966  15.3993  18.3545  19.0510  20.0592  25.6419  25.9703

          k = 0.3089 0.3089 0.4012 (  2583 PWs)   bands (ev):

   -85.9053 -46.3664 -46.2944 -46.2936   8.7154  11.7837  13.0525  15.2457
    15.3002  15.7121  16.8250  20.1476  20.4467  23.2517  24.5150

          k = 0.3089 0.4633 0.0000 (  2576 PWs)   bands (ev):

   -85.9041 -46.3525 -46.3176 -46.2929   8.5998  11.3681  14.1062  14.4283
    14.9806  15.0906  17.1411  20.6217  23.0680  24.1332  27.1800

          k = 0.3089 0.4633 0.1337 (  2583 PWs)   bands (ev):

   -85.9040 -46.3548 -46.3174 -46.2926   8.8187  11.5429  13.5252  14.7555
    15.1503  15.2757  17.2562  20.6361  22.1271  23.2985  25.4657

          k = 0.3089 0.4633 0.2674 (  2584 PWs)   bands (ev):

   -85.9037 -46.3600 -46.3168 -46.2922   9.4053  11.9121  12.8821  14.9492
    15.3014  15.9516  17.5277  19.5873  20.7507  22.6755  24.0225

          k = 0.3089 0.4633 0.4012 (  2585 PWs)   bands (ev):

   -85.9035 -46.3642 -46.3164 -46.2918  10.0632  12.1410  12.3493  15.2196
    15.9072  16.3842  17.2558  18.3474  20.1100  21.6656  24.7081

          k = 0.4633 0.4633 0.0000 (  2586 PWs)   bands (ev):

   -85.9023 -46.3504 -46.3153 -46.3151   9.9600  12.5020  13.2305  14.6158
    14.6523  14.7327  16.9386  19.4816  20.6925  24.5301  29.6969

          k = 0.4633 0.4633 0.1337 (  2577 PWs)   bands (ev):

   -85.9021 -46.3527 -46.3150 -46.3149  10.1638  12.4995  12.8438  14.3713
    15.3384  15.4012  17.0204  19.2506  20.6708  23.2610  26.7515

          k = 0.4633 0.4633 0.2674 (  2582 PWs)   bands (ev):

   -85.9019 -46.3578 -46.3145 -46.3144  10.6955  12.3415  12.3505  14.9932
    16.2103  16.3053  17.5605  18.4718  20.2421  21.8943  23.9657

          k = 0.4633 0.4633 0.4012 (  2592 PWs)   bands (ev):

   -85.9017 -46.3619 -46.3141 -46.3139  11.2431  12.0631  12.1806  16.0869
    16.4919  17.1089  17.6485  18.7907  19.0825  21.3163  21.7920

     the Fermi energy is    18.3607 ev

!    total energy              =    -344.07817680 Ry
     estimated scf accuracy    <       0.00000002 Ry
     smearing contrib. (-TS)   =       0.00079301 Ry
     internal energy E=F+TS    =    -344.07896980 Ry

     The total energy is F=E-TS. E is the sum of the following terms:
     one-electron contribution =    -211.99812823 Ry
     hartree contribution      =     120.55506121 Ry
     xc contribution           =     -46.27713034 Ry
     ewald contribution        =    -206.35877244 Ry

     convergence has been achieved in   6 iterations

     Forces acting on atoms (cartesian axes, Ry/au):

     atom    1 type  1   force =     0.00000000    0.00000000    0.00000000
     atom    2 type  2   force =     0.00000000    0.00000000    0.00000000

     Total force =     0.000000     Total SCF correction =     0.000000


     Computing stress (Cartesian axis) and pressure

          total   stress  (Ry/bohr**3)                   (kbar)     P=      179.16
   0.00119952   0.00000000   0.00000000          176.46        0.00        0.00
   0.00000000   0.00119952   0.00000000            0.00      176.46        0.00
   0.00000000   0.00000000   0.00125476            0.00        0.00      184.58

     Energy error            =      1.8E-02 Ry
     Gradient error          =      0.0E+00 Ry/Bohr
     Cell gradient error     =      1.8E+02 kbar

     number of scf cycles    =   2
     number of bfgs steps    =   1

     enthalpy           old  =    -344.0602401322 Ry
     enthalpy           new  =    -344.0781767957 Ry

     CASE: enthalpy          _new < enthalpy          _old

     new trust radius        =       0.1293157813 bohr
     new conv_thr            =       0.0000000100 Ry

     new unit-cell volume =    149.50925 a.u.^3 (    22.15499 Ang^3 )
     density =      6.50417 g/cm^3

CELL_PARAMETERS (alat=  5.37330365)
   0.925000000   0.000000000   0.000000000
   0.000000000   0.925000000   0.000000000
   0.000000000   0.000000000   1.126316512

ATOMIC_POSITIONS (crystal)
Si               0.0000000000        0.0000000000        0.0000000000
Ni               0.5000000000        0.5000000000        0.5000000000



     Writing config-only to output data dir ./tmp/SiNi-relax.save/ :
     XML data file
     NEW-OLD atomic charge density approx. for the potential
     New effective cutoffs (rho, wfc):  438.95  109.94

     total cpu time spent up to now is       29.0 secs

     Self-consistent Calculation

     iteration #  1     ecut=   110.00 Ry     beta= 0.70
     Davidson diagonalization with overlap
     ethr =  1.00E-06,  avg # of iterations =  8.3

     total cpu time spent up to now is       32.7 secs

     total energy              =    -344.08290915 Ry
     estimated scf accuracy    <       0.00169520 Ry

     iteration #  2     ecut=   110.00 Ry     beta= 0.70
     Davidson diagonalization with overlap
     ethr =  7.71E-06,  avg # of iterations =  2.9

     total cpu time spent up to now is       34.5 secs

     total energy              =    -344.08172260 Ry
     estimated scf accuracy    <       0.01769961 Ry

     iteration #  3     ecut=   110.00 Ry     beta= 0.70
     Davidson diagonalization with overlap
     ethr =  7.71E-06,  avg # of iterations =  2.2

     total cpu time spent up to now is       36.2 secs

     total energy              =    -344.08398156 Ry
     estimated scf accuracy    <       0.00000703 Ry

     iteration #  4     ecut=   110.00 Ry     beta= 0.70
     Davidson diagonalization with overlap
     ethr =  3.19E-08,  avg # of iterations =  3.7

     total cpu time spent up to now is       38.3 secs

     total energy              =    -344.08398629 Ry
     estimated scf accuracy    <       0.00000644 Ry

     iteration #  5     ecut=   110.00 Ry     beta= 0.70
     Davidson diagonalization with overlap
     ethr =  2.93E-08,  avg # of iterations =  1.0

     total cpu time spent up to now is       39.5 secs

     total energy              =    -344.08398643 Ry
     estimated scf accuracy    <       0.00000073 Ry

     iteration #  6     ecut=   110.00 Ry     beta= 0.70
     Davidson diagonalization with overlap
     ethr =  3.30E-09,  avg # of iterations =  2.0

     total cpu time spent up to now is       41.0 secs

     total energy              =    -344.08398658 Ry
     estimated scf accuracy    <       0.00000002 Ry

     iteration #  7     ecut=   110.00 Ry     beta= 0.70
     Davidson diagonalization with overlap
     ethr =  7.09E-11,  avg # of iterations =  1.9

     total cpu time spent up to now is       42.3 secs

     End of self-consistent calculation

          k = 0.0000 0.0000 0.0000 (  2613 PWs)   bands (ev):

   -86.8621 -47.3172 -47.1944 -47.1944   2.7941  12.6808  13.0846  14.8313
    14.8313  15.3659  15.8679  21.9182  22.1610  22.1610  24.5037

          k = 0.0000 0.0000 0.1268 (  2582 PWs)   bands (ev):

   -86.8620 -47.3185 -47.1943 -47.1943   3.0749  11.9954  13.1380  14.7332
    14.7332  15.2252  15.3719  22.5530  22.5530  23.6582  24.3909

          k = 0.0000 0.0000 0.2537 (  2590 PWs)   bands (ev):

   -86.8619 -47.3214 -47.1941 -47.1941   3.8790  10.1098  13.2620  14.5299
    14.5299  14.8602  15.3854  23.6087  23.6087  24.1266  26.7469

          k = 0.0000 0.0000 0.3805 (  2594 PWs)   bands (ev):

   -86.8618 -47.3238 -47.1940 -47.1940   4.9594   8.2464  13.3657  14.3808
    14.3808  14.8538  15.3963  23.9042  24.9361  24.9361  28.5173

          k = 0.0000 0.1544 0.0000 (  2591 PWs)   bands (ev):

   -86.8611 -47.3160 -47.2069 -47.1934   3.2307  12.8119  13.0668  14.0951
    14.8646  15.1677  16.9529  19.1285  22.0213  22.6869  26.3332

          k = 0.0000 0.1544 0.1268 (  2591 PWs)   bands (ev):

   -86.8610 -47.3173 -47.2068 -47.1933   3.5058  12.2017  13.1051  14.0429
    14.7710  15.1816  16.0673  19.4370  23.0493  23.8543  26.3237

          k = 0.0000 0.1544 0.2537 (  2589 PWs)   bands (ev):

   -86.8609 -47.3202 -47.2066 -47.1931   4.2905  10.4406  13.2718  14.0449
    14.5802  15.2064  15.2359  20.1979  24.0190  25.6885  27.2499

          k = 0.0000 0.1544 0.3805 (  2601 PWs)   bands (ev):

   -86.8608 -47.3225 -47.2064 -47.1930   5.3284   8.6702  13.4498  14.0183
    14.4405  14.9333  15.2239  20.9959  25.1224  25.1851  26.6633

          k = 0.0000 0.3089 0.0000 (  2579 PWs)   bands (ev):

   -86.8588 -47.3133 -47.2349 -47.1911   4.5155  11.9589  13.2839  13.3386
    14.7729  14.9403  16.6477  18.8004  22.2809  24.1028  27.4047

          k = 0.0000 0.3089 0.1268 (  2582 PWs)   bands (ev):

   -86.8587 -47.3147 -47.2348 -47.1910   4.7717  12.0775  12.6141  13.6073
    14.7766  14.8788  16.6485  17.5583  24.1223  24.3851  25.7179

          k = 0.0000 0.3089 0.2537 (  2588 PWs)   bands (ev):

   -86.8586 -47.3174 -47.2345 -47.1908   5.4907  11.2684  12.4375  13.7099
    14.6887  14.8449  15.6588  17.6320  22.9124  25.1054  27.1930

          k = 0.0000 0.3089 0.3805 (  2585 PWs)   bands (ev):

   -86.8585 -47.3196 -47.2343 -47.1907   6.3905   9.8700  12.7930  13.6449
    14.5771  14.8658  15.0770  18.3260  21.2243  25.8476  27.9226

          k = 0.0000 0.4633 0.0000 (  2566 PWs)   bands (ev):

   -86.8569 -47.3113 -47.2573 -47.1893   6.5449   9.3751  12.9358  13.5729
    14.4933  15.0018  16.3186  21.1405  22.6044  24.0326  26.1065

          k = 0.0000 0.4633 0.1268 (  2582 PWs)   bands (ev):

   -86.8569 -47.3125 -47.2572 -47.1892   6.7540   9.5805  12.7779  13.5891
    14.5137  14.9380  16.2336  19.2293  21.8883  25.4048  26.2309

          k = 0.0000 0.4633 0.2537 (  2590 PWs)   bands (ev):

   -86.8568 -47.3152 -47.2569 -47.1890   7.3052  10.1538  12.3249  13.5313
    14.5605  14.7994  15.7950  17.6522  19.7643  26.4739  28.0181

          k = 0.0000 0.4633 0.3805 (  2591 PWs)   bands (ev):

   -86.8567 -47.3174 -47.2566 -47.1889   7.8848  10.9159  11.6775  13.2483
    14.5998  14.6917  15.2013  17.2645  18.4618  26.6363  29.5289

          k = 0.1544 0.1544 0.0000 (  2568 PWs)   bands (ev):

   -86.8600 -47.3148 -47.2061 -47.2055   3.6624  12.9338  13.0998  13.9349
    14.6208  14.9317  17.7308  18.9662  20.3279  22.2382  29.2421

          k = 0.1544 0.1544 0.1268 (  2589 PWs)   bands (ev):

   -86.8600 -47.3161 -47.2060 -47.2055   3.9318  12.3756  13.1577  13.9374
    14.4697  14.9508  16.6711  19.2849  20.6022  24.2457  28.8571

          k = 0.1544 0.1544 0.2537 (  2592 PWs)   bands (ev):

   -86.8599 -47.3190 -47.2058 -47.2053   4.6972  10.7522  13.3136  14.1296
    14.1443  14.9859  15.6155  20.0611  21.3218  27.1450  27.4702

          k = 0.1544 0.1544 0.3805 (  2600 PWs)   bands (ev):

   -86.8598 -47.3213 -47.2056 -47.2051   5.6946   9.0786  13.5294  13.8219
    14.4170  14.9787  15.1022  20.8450  22.1980  25.6483  25.8159

          k = 0.1544 0.3089 0.0000 (  2578 PWs)   bands (ev):

   -86.8578 -47.3122 -47.2337 -47.2034   4.9309  12.1830  13.3425  13.4276
    14.5794  14.6084  16.7871  19.3829  20.9971  22.7419  27.8006

          k = 0.1544 0.3089 0.1268 (  2581 PWs)   bands (ev):

   -86.8577 -47.3135 -47.2336 -47.2033   5.1814  12.2902  12.7260  13.7089
    14.4524  14.6384  16.9534  17.9274  21.2331  24.8892  25.9298

          k = 0.1544 0.3089 0.2537 (  2588 PWs)   bands (ev):

   -86.8576 -47.3162 -47.2333 -47.2031   5.8818  11.5178  12.5370  13.8856
    14.3003  14.6934  16.1247  17.7738  21.7984  23.3886  28.0691

          k = 0.1544 0.3089 0.3805 (  2586 PWs)   bands (ev):

   -86.8575 -47.3184 -47.2331 -47.2030   6.7477  10.2110  12.7362  13.8278
    14.5536  14.7339  15.2514  18.4955  21.6392  22.4152  27.0290

          k = 0.1544 0.4633 0.0000 (  2589 PWs)   bands (ev):

   -86.8559 -47.3101 -47.2560 -47.2015   6.9209   9.7329  13.0718  13.7138
    14.2822  14.6932  16.2986  21.5590  22.2504  23.8812  24.4234

          k = 0.1544 0.4633 0.1268 (  2586 PWs)   bands (ev):

   -86.8559 -47.3114 -47.2559 -47.2014   7.1247   9.9302  12.8170  13.7866
    14.4070  14.6121  16.2807  19.6100  22.3524  22.8242  25.6938

          k = 0.1544 0.4633 0.2537 (  2596 PWs)   bands (ev):

   -86.8558 -47.3141 -47.2556 -47.2012   7.6628  10.4638  12.2828  13.7529
    14.4823  14.7158  16.0657  17.7941  20.1249  23.1391  26.7946

          k = 0.1544 0.4633 0.3805 (  2590 PWs)   bands (ev):

   -86.8557 -47.3162 -47.2553 -47.2011   8.2329  11.0973  11.7000  13.4645
    14.7141  14.9189  15.3815  17.2442  18.6540  23.5387  27.4924

          k = 0.3089 0.3089 0.0000 (  2588 PWs)   bands (ev):

   -86.8555 -47.3096 -47.2314 -47.2306   6.1433  12.5329  12.9654  13.5433
    14.1433  14.4231  16.6409  18.8657  20.7026  23.3504  25.8121

          k = 0.3089 0.3089 0.1268 (  2587 PWs)   bands (ev):

   -86.8554 -47.3108 -47.2313 -47.2305   6.3748  12.5155  12.8087  13.4637
    14.2113  14.4758  16.9894  18.8683  18.9816  24.7932  26.3940

          k = 0.3089 0.3089 0.2537 (  2579 PWs)   bands (ev):

   -86.8553 -47.3136 -47.2311 -47.2303   7.0128  11.9408  12.5329  13.7792
    14.3120  14.5780  17.0013  17.9245  18.9064  24.3001  24.6236

          k = 0.3089 0.3089 0.3805 (  2583 PWs)   bands (ev):

   -86.8553 -47.3157 -47.2309 -47.2301   7.7702  11.0241  12.3544  14.3692
    14.4686  14.7458  15.6487  18.9057  19.1271  22.2057  23.4591

          k = 0.3089 0.4633 0.0000 (  2576 PWs)   bands (ev):

   -86.8537 -47.3075 -47.2531 -47.2289   7.9871  10.7297  13.3971  13.4122
    14.1203  14.2178  16.1809  19.5867  22.1545  22.2372  25.2164

          k = 0.3089 0.4633 0.1268 (  2583 PWs)   bands (ev):

   -86.8536 -47.3087 -47.2530 -47.2288   8.1754  10.8753  12.7177  13.8694
    14.2493  14.4230  16.2760  19.5326  20.5221  22.3474  23.7174

          k = 0.3089 0.4633 0.2537 (  2584 PWs)   bands (ev):

   -86.8535 -47.3114 -47.2527 -47.2286   8.6734  11.1817  12.1171  14.0435
    14.4432  15.0457  16.4856  18.1853  19.5949  21.3068  22.9069

          k = 0.3089 0.4633 0.3805 (  2585 PWs)   bands (ev):

   -86.8534 -47.3135 -47.2525 -47.2284   9.2084  11.3734  11.6597  14.3731
    14.8839  15.4779  16.1538  17.0638  19.0531  20.3437  23.4615

          k = 0.4633 0.4633 0.0000 (  2586 PWs)   bands (ev):

   -86.8519 -47.3055 -47.2509 -47.2507   9.4186  11.8460  12.5717  13.6609
    13.7587  13.9018  15.9992  18.3017  19.7574  22.6449  26.9899

          k = 0.4633 0.4633 0.1268 (  2577 PWs)   bands (ev):

   -86.8518 -47.3067 -47.2508 -47.2506   9.5938  11.8187  12.1457  13.5282
    14.4024  14.5194  16.0683  18.0159  19.7000  21.6958  24.9748

          k = 0.4633 0.4633 0.2537 (  2582 PWs)   bands (ev):

   -86.8517 -47.3093 -47.2505 -47.2504  10.0444  11.6378  11.6600  14.0893
    15.2980  15.3721  16.5462  17.1773  19.1580  20.6370  22.5098

          k = 0.4633 0.4633 0.3805 (  2592 PWs)   bands (ev):

   -86.8516 -47.3113 -47.2503 -47.2502  10.4853  11.3639  11.5284  15.0471
    15.5853  15.9840  16.5429  17.7267  17.9887  20.0339  20.4827

     the Fermi energy is    17.0775 ev

!    total energy              =    -344.08398658 Ry
     estimated scf accuracy    <          3.3E-09 Ry
     smearing contrib. (-TS)   =       0.00071710 Ry
     internal energy E=F+TS    =    -344.08470368 Ry

     The total energy is F=E-TS. E is the sum of the following terms:
     one-electron contribution =    -219.15236050 Ry
     hartree contribution      =     123.35089506 Ry
     xc contribution           =     -46.19511833 Ry
     ewald contribution        =    -202.08811991 Ry

     convergence has been achieved in   7 iterations

     Forces acting on atoms (cartesian axes, Ry/au):

     atom    1 type  1   force =     0.00000000    0.00000000    0.00000000
     atom    2 type  2   force =     0.00000000    0.00000000    0.00000000

     Total force =     0.000000     Total SCF correction =     0.000000


     Computing stress (Cartesian axis) and pressure

          total   stress  (Ry/bohr**3)                   (kbar)     P=       52.05
   0.00039096   0.00000000   0.00000000           57.51        0.00        0.00
   0.00000000   0.00039096   0.00000000            0.00       57.51        0.00
   0.00000000   0.00000000   0.00027963            0.00        0.00       41.13

     Energy error            =      5.8E-03 Ry
     Gradient error          =      0.0E+00 Ry/Bohr
     Cell gradient error     =      4.1E+01 kbar

     number of scf cycles    =   3
     number of bfgs steps    =   2

     enthalpy           old  =    -344.0781767957 Ry
     enthalpy           new  =    -344.0839865792 Ry

     CASE: enthalpy          _new < enthalpy          _old

     new trust radius        =       0.0361150970 bohr
     new conv_thr            =       0.0000000100 Ry

     new unit-cell volume =    151.71722 a.u.^3 (    22.48217 Ang^3 )
     density =      6.40951 g/cm^3

CELL_PARAMETERS (alat=  5.37330365)
   0.925000000   0.000000000   0.000000000
   0.000000000   0.925000000   0.000000000
   0.000000000   0.000000000   1.142950072

ATOMIC_POSITIONS (crystal)
Si               0.0000000000        0.0000000000        0.0000000000
Ni               0.5000000000        0.5000000000        0.5000000000



     Writing config-only to output data dir ./tmp/SiNi-relax.save/ :
     XML data file
     NEW-OLD atomic charge density approx. for the potential
     New effective cutoffs (rho, wfc):  438.92  109.94

     total cpu time spent up to now is       43.5 secs

     Self-consistent Calculation

     iteration #  1     ecut=   110.00 Ry     beta= 0.70
     Davidson diagonalization with overlap
     ethr =  1.00E-06,  avg # of iterations =  5.8

     total cpu time spent up to now is       46.3 secs

     total energy              =    -344.08423041 Ry
     estimated scf accuracy    <       0.00014616 Ry

     iteration #  2     ecut=   110.00 Ry     beta= 0.70
     Davidson diagonalization with overlap
     ethr =  6.64E-07,  avg # of iterations =  2.8

     total cpu time spent up to now is       47.9 secs

     total energy              =    -344.08412725 Ry
     estimated scf accuracy    <       0.00152653 Ry

     iteration #  3     ecut=   110.00 Ry     beta= 0.70
     Davidson diagonalization with overlap
     ethr =  6.64E-07,  avg # of iterations =  2.2

     total cpu time spent up to now is       49.5 secs

     total energy              =    -344.08432219 Ry
     estimated scf accuracy    <       0.00000069 Ry

     iteration #  4     ecut=   110.00 Ry     beta= 0.70
     Davidson diagonalization with overlap
     ethr =  3.12E-09,  avg # of iterations =  3.7

     total cpu time spent up to now is       51.1 secs

     total energy              =    -344.08432259 Ry
     estimated scf accuracy    <       0.00000048 Ry

     iteration #  5     ecut=   110.00 Ry     beta= 0.70
     Davidson diagonalization with overlap
     ethr =  2.16E-09,  avg # of iterations =  1.1

     total cpu time spent up to now is       52.3 secs

     total energy              =    -344.08432260 Ry
     estimated scf accuracy    <       0.00000004 Ry

     iteration #  6     ecut=   110.00 Ry     beta= 0.70
     Davidson diagonalization with overlap
     ethr =  1.88E-10,  avg # of iterations =  2.0

     total cpu time spent up to now is       53.8 secs

     End of self-consistent calculation

          k = 0.0000 0.0000 0.0000 (  2613 PWs)   bands (ev):

   -87.1147 -47.5687 -47.4449 -47.4449   2.6191  12.4467  12.8752  14.5867
    14.5867  15.1353  15.3439  21.3535  21.9813  21.9813  24.2117

          k = 0.0000 0.0000 0.1250 (  2582 PWs)   bands (ev):

   -87.1147 -47.5699 -47.4448 -47.4448   2.8894  11.7158  12.9241  14.4971
    14.4971  14.8023  15.1405  22.3560  22.3560  23.0435  24.1035

          k = 0.0000 0.0000 0.2500 (  2590 PWs)   bands (ev):

   -87.1146 -47.5723 -47.4447 -47.4447   3.6611   9.8197  13.0374  14.3103
    14.3103  14.5226  15.1523  23.3652  23.3652  23.8512  26.1473

          k = 0.0000 0.0000 0.3750 (  2594 PWs)   bands (ev):

   -87.1146 -47.5744 -47.4445 -47.4445   4.6832   8.0158  13.1318  14.1724
    14.1724  14.5311  15.1618  23.6401  24.6162  24.6162  28.2873

          k = 0.0000 0.1544 0.0000 (  2591 PWs)   bands (ev):

   -87.1137 -47.5676 -47.4573 -47.4439   3.0552  12.5897  12.8606  13.7917
    14.6198  14.9428  16.4855  18.8934  21.4618  22.4976  26.0543

          k = 0.0000 0.1544 0.1250 (  2591 PWs)   bands (ev):

   -87.1137 -47.5687 -47.4572 -47.4438   3.3200  11.9280  12.9000  13.7699
    14.5347  14.9550  15.6800  19.1862  22.8437  23.2560  26.0248

          k = 0.0000 0.1544 0.2500 (  2589 PWs)   bands (ev):

   -87.1136 -47.5711 -47.4570 -47.4436   4.0727  10.1564  13.0559  13.8054
    14.3597  14.9142  14.9772  19.9117  23.7688  25.4071  26.6974

          k = 0.0000 0.1544 0.3750 (  2601 PWs)   bands (ev):

   -87.1135 -47.5731 -47.4569 -47.4435   5.0544   8.4419  13.2189  13.8067
    14.2308  14.6162  14.9928  20.6651  24.8661  24.8798  26.3446

          k = 0.0000 0.3089 0.0000 (  2579 PWs)   bands (ev):

   -87.1114 -47.5649 -47.4852 -47.4416   4.3392  11.7900  13.0437  13.0573
    14.5577  14.6951  16.3781  18.3181  21.7591  23.8930  27.0749

          k = 0.0000 0.3089 0.1250 (  2582 PWs)   bands (ev):

   -87.1114 -47.5661 -47.4851 -47.4415   4.5855  11.8992  12.3442  13.3572
    14.5583  14.6420  16.3502  17.1581  23.6268  24.1609  25.2141

          k = 0.0000 0.3089 0.2500 (  2588 PWs)   bands (ev):

   -87.1113 -47.5684 -47.4849 -47.4414   5.2743  11.0037  12.2447  13.4660
    14.4671  14.6217  15.3293  17.3094  22.5690  24.8434  26.7586

          k = 0.0000 0.3089 0.3750 (  2585 PWs)   bands (ev):

   -87.1113 -47.5703 -47.4847 -47.4413   6.1248   9.6488  12.5812  13.4109
    14.3642  14.6411  14.7657  17.9686  20.9489  25.5402  27.5898

          k = 0.0000 0.4633 0.0000 (  2566 PWs)   bands (ev):

   -87.1096 -47.5628 -47.5075 -47.4398   6.3695   9.2027  12.6502  13.3438
    14.2839  14.7563  16.0599  20.6398  22.1506  23.5228  25.8675

          k = 0.0000 0.4633 0.1250 (  2582 PWs)   bands (ev):

   -87.1096 -47.5640 -47.5074 -47.4397   6.5696   9.3989  12.5060  13.3543
    14.3024  14.6987  15.9663  18.7932  21.4478  24.8999  25.9814

          k = 0.0000 0.4633 0.2500 (  2590 PWs)   bands (ev):

   -87.1095 -47.5662 -47.5071 -47.4396   7.0948   9.9460  12.0837  13.2912
    14.3445  14.5734  15.4960  17.2828  19.3992  26.2050  27.5935

          k = 0.0000 0.4633 0.3750 (  2591 PWs)   bands (ev):

   -87.1094 -47.5680 -47.5069 -47.4394   7.6410  10.6756  11.4609  13.0233
    14.3799  14.4756  14.8952  16.9014  18.1671  26.3551  29.1561

          k = 0.1544 0.1544 0.0000 (  2568 PWs)   bands (ev):

   -87.1127 -47.5664 -47.4565 -47.4560   3.4866  12.7156  12.9026  13.6276
    14.3747  14.7137  17.2666  18.7174  20.1089  21.6666  29.0118

          k = 0.1544 0.1544 0.1250 (  2589 PWs)   bands (ev):

   -87.1127 -47.5676 -47.4564 -47.4559   3.7459  12.1091  12.9572  13.6672
    14.2317  14.7304  16.2802  19.0222  20.3677  23.6161  28.5869

          k = 0.1544 0.1544 0.2500 (  2592 PWs)   bands (ev):

   -87.1126 -47.5699 -47.4562 -47.4557   4.4798  10.4744  13.1053  13.8829
    13.9210  14.7603  15.2974  19.7653  21.0507  26.8501  26.9527

          k = 0.1544 0.1544 0.3750 (  2600 PWs)   bands (ev):

   -87.1125 -47.5719 -47.4561 -47.4556   5.4230   8.8529  13.3091  13.6132
    14.1843  14.7073  14.8393  20.5087  21.8687  25.4000  25.5502

          k = 0.1544 0.3089 0.0000 (  2578 PWs)   bands (ev):

   -87.1104 -47.5638 -47.4840 -47.4538   4.7550  12.0127  13.1290  13.1358
    14.3586  14.3687  16.5148  18.9019  20.7593  22.1934  27.2922

          k = 0.1544 0.3089 0.1250 (  2581 PWs)   bands (ev):

   -87.1104 -47.5649 -47.4839 -47.4538   4.9957  12.1141  12.4623  13.4652
    14.2167  14.4186  16.6693  17.5109  20.9823  24.3109  25.4706

          k = 0.1544 0.3089 0.2500 (  2588 PWs)   bands (ev):

   -87.1103 -47.5672 -47.4837 -47.4536   5.6665  11.2601  12.3478  13.6446
    14.0707  14.4719  15.7938  17.4537  21.5158  23.0378  27.5523

          k = 0.1544 0.3089 0.3750 (  2586 PWs)   bands (ev):

   -87.1103 -47.5691 -47.4835 -47.4535   6.4850   9.9938  12.5371  13.5963
    14.3160  14.5096  14.9482  18.1401  21.3633  22.0899  26.7646

          k = 0.1544 0.4633 0.0000 (  2589 PWs)   bands (ev):

   -87.1086 -47.5617 -47.5062 -47.4519   6.7473   9.5611  12.7908  13.4936
    14.0735  14.4434  16.0393  21.0626  21.9591  23.4400  23.9101

          k = 0.1544 0.4633 0.1250 (  2586 PWs)   bands (ev):

   -87.1086 -47.5628 -47.5061 -47.4519   6.9424   9.7495  12.5574  13.5567
    14.1880  14.3700  16.0152  19.1762  21.9373  22.5257  25.2873

          k = 0.1544 0.4633 0.2500 (  2596 PWs)   bands (ev):

   -87.1085 -47.5651 -47.5058 -47.4517   7.4552  10.2586  12.0540  13.5185
    14.2483  14.4867  15.7781  17.4217  19.7585  22.8542  26.5057

          k = 0.1544 0.4633 0.3750 (  2590 PWs)   bands (ev):

   -87.1084 -47.5669 -47.5056 -47.4516   7.9924  10.8649  11.4977  13.2417
    14.4718  14.6912  15.0855  16.8858  18.3614  23.2240  27.1783

          k = 0.3089 0.3089 0.0000 (  2588 PWs)   bands (ev):

   -87.1082 -47.5612 -47.4817 -47.4809   5.9692  12.3569  12.7907  13.2601
    13.8932  14.2146  16.3698  18.5884  20.2144  22.8565  25.5058

          k = 0.3089 0.3089 0.1250 (  2587 PWs)   bands (ev):

   -87.1081 -47.5623 -47.4816 -47.4809   6.1915  12.3166  12.6287  13.2016
    13.9690  14.2636  16.7094  18.5367  18.5983  24.4017  25.9598

          k = 0.3089 0.3089 0.2500 (  2579 PWs)   bands (ev):

   -87.1081 -47.5646 -47.4814 -47.4807   6.8020  11.7136  12.3492  13.5420
    14.0761  14.3581  16.6442  17.6191  18.5995  23.9474  24.2664

          k = 0.3089 0.3089 0.3750 (  2583 PWs)   bands (ev):

   -87.1080 -47.5664 -47.4813 -47.4805   7.5179  10.8218  12.1705  14.1342
    14.2377  14.4943  15.3416  18.5785  18.7689  21.9321  23.1762

          k = 0.3089 0.4633 0.0000 (  2576 PWs)   bands (ev):

   -87.1063 -47.5591 -47.5033 -47.4792   7.8206  10.5587  13.1277  13.2227
    13.8667  14.0110  15.9211  19.3046  21.7471  21.9056  24.6896

          k = 0.3089 0.4633 0.1250 (  2583 PWs)   bands (ev):

   -87.1063 -47.5602 -47.5032 -47.4791   8.0008  10.6970  12.4989  13.6341
    14.0104  14.1984  16.0109  19.2271  20.1080  22.0911  23.2599

          k = 0.3089 0.4633 0.2500 (  2584 PWs)   bands (ev):

   -87.1063 -47.5625 -47.5030 -47.4789   8.4757  10.9876  11.9139  13.8036
    14.2138  14.8015  16.2026  17.8183  19.2854  20.9443  22.6123

          k = 0.3089 0.4633 0.3750 (  2585 PWs)   bands (ev):

   -87.1062 -47.5642 -47.5028 -47.4788   8.9798  11.1702  11.4766  14.1452
    14.6128  15.2310  15.8629  16.7241  18.7758  19.9928  23.1325

          k = 0.4633 0.4633 0.0000 (  2586 PWs)   bands (ev):

   -87.1045 -47.5571 -47.5011 -47.5009   9.2714  11.6706  12.3934  13.4025
    13.5051  13.7094  15.7457  17.9767  19.5057  22.1607  26.4490

          k = 0.4633 0.4633 0.1250 (  2577 PWs)   bands (ev):

   -87.1045 -47.5581 -47.5010 -47.5009   9.4391  11.6373  11.9587  13.3024
    14.1562  14.2881  15.8116  17.6790  19.4392  21.2865  24.5061

          k = 0.4633 0.4633 0.2500 (  2582 PWs)   bands (ev):

   -87.1044 -47.5604 -47.5008 -47.5007   9.8684  11.4519  11.4777  13.8500
    15.0540  15.1204  16.2722  16.8358  18.8671  20.2995  22.1263

          k = 0.4633 0.4633 0.3750 (  2592 PWs)   bands (ev):

   -87.1044 -47.5620 -47.5006 -47.5005  10.2830  11.1801  11.3555  14.7717
    15.3419  15.6716  16.2626  17.4463  17.6828  19.7063  20.1354

     the Fermi energy is    16.7453 ev

!    total energy              =    -344.08432261 Ry
     estimated scf accuracy    <          3.9E-09 Ry
     smearing contrib. (-TS)   =       0.00061939 Ry
     internal energy E=F+TS    =    -344.08494200 Ry

     The total energy is F=E-TS. E is the sum of the following terms:
     one-electron contribution =    -221.19225736 Ry
     hartree contribution      =     124.16226401 Ry
     xc contribution           =     -46.17358798 Ry
     ewald contribution        =    -200.88136067 Ry

     convergence has been achieved in   6 iterations

     Forces acting on atoms (cartesian axes, Ry/au):

     atom    1 type  1   force =     0.00000000    0.00000000    0.00000000
     atom    2 type  2   force =     0.00000000    0.00000000    0.00000000

     Total force =     0.000000     Total SCF correction =     0.000000


     Computing stress (Cartesian axis) and pressure

          total   stress  (Ry/bohr**3)                   (kbar)     P=       21.27
   0.00020794   0.00000000   0.00000000           30.59        0.00        0.00
   0.00000000   0.00020794   0.00000000            0.00       30.59        0.00
   0.00000000   0.00000000   0.00001780            0.00        0.00        2.62

     Energy error            =      3.4E-04 Ry
     Gradient error          =      0.0E+00 Ry/Bohr
     Cell gradient error     =      2.6E+00 kbar

     number of scf cycles    =   4
     number of bfgs steps    =   3

     enthalpy           old  =    -344.0839865792 Ry
     enthalpy           new  =    -344.0843226112 Ry

     CASE: enthalpy          _new < enthalpy          _old

     new trust radius        =       0.0024374324 bohr
     new conv_thr            =       0.0000000100 Ry

     new unit-cell volume =    151.86733 a.u.^3 (    22.50442 Ang^3 )
     density =      6.40318 g/cm^3

CELL_PARAMETERS (alat=  5.37330365)
   0.925000000   0.000000000   0.000000000
   0.000000000   0.925000000   0.000000000
   0.000000000   0.000000000   1.144080941

ATOMIC_POSITIONS (crystal)
Si               0.0000000000        0.0000000000        0.0000000000
Ni               0.5000000000        0.5000000000        0.5000000000



     Writing config-only to output data dir ./tmp/SiNi-relax.save/ :
     XML data file
     NEW-OLD atomic charge density approx. for the potential
     New effective cutoffs (rho, wfc):  438.91  109.94

     total cpu time spent up to now is       55.0 secs

     Self-consistent Calculation

     iteration #  1     ecut=   110.00 Ry     beta= 0.70
     Davidson diagonalization with overlap
     ethr =  1.00E-06,  avg # of iterations =  2.4

     Threshold (ethr) on eigenvalues was too large:
     Diagonalizing with lowered threshold

     Davidson diagonalization with overlap
     ethr =  3.35E-09,  avg # of iterations =  3.2

     total cpu time spent up to now is       58.3 secs

     total energy              =    -344.08432361 Ry
     estimated scf accuracy    <       0.00000125 Ry

     iteration #  2     ecut=   110.00 Ry     beta= 0.70
     Davidson diagonalization with overlap
     ethr =  5.68E-09,  avg # of iterations =  2.9

     total cpu time spent up to now is       60.0 secs

     total energy              =    -344.08432272 Ry
     estimated scf accuracy    <       0.00001367 Ry

     iteration #  3     ecut=   110.00 Ry     beta= 0.70
     Davidson diagonalization with overlap
     ethr =  5.68E-09,  avg # of iterations =  2.2

     total cpu time spent up to now is       61.6 secs

     End of self-consistent calculation

          k = 0.0000 0.0000 0.0000 (  2613 PWs)   bands (ev):

   -87.1320 -47.5859 -47.4620 -47.4620   2.6073  12.4309  12.8610  14.5702
    14.5702  15.1195  15.3092  21.3154  21.9692  21.9692  24.1921

          k = 0.0000 0.0000 0.1249 (  2582 PWs)   bands (ev):

   -87.1320 -47.5870 -47.4619 -47.4619   2.8770  11.6969  12.9096  14.4812
    14.4812  14.7743  15.1247  22.3427  22.3427  23.0020  24.0842

          k = 0.0000 0.0000 0.2497 (  2590 PWs)   bands (ev):

   -87.1319 -47.5894 -47.4618 -47.4618   3.6465   9.8003  13.0221  14.2954
    14.2954  14.5000  15.1364  23.3488  23.3488  23.8328  26.1063

          k = 0.0000 0.0000 0.3746 (  2594 PWs)   bands (ev):

   -87.1319 -47.5914 -47.4617 -47.4617   4.6647   8.0004  13.1160  14.1583
    14.1583  14.5095  15.1457  23.6225  24.5947  24.5947  28.2720

          k = 0.0000 0.1544 0.0000 (  2591 PWs)   bands (ev):

   -87.1310 -47.5847 -47.4744 -47.4610   3.0434  12.5746  12.8467  13.7711
    14.6033  14.9274  16.4547  18.8776  21.4240  22.4849  26.0357

          k = 0.0000 0.1544 0.1249 (  2591 PWs)   bands (ev):

   -87.1310 -47.5858 -47.4743 -47.4609   3.3075  11.9094  12.8860  13.7514
    14.5187  14.9395  15.6544  19.1694  22.8298  23.2155  26.0051

          k = 0.0000 0.1544 0.2497 (  2589 PWs)   bands (ev):

   -87.1309 -47.5882 -47.4742 -47.4608   4.0582  10.1374  13.0413  13.7892
    14.3447  14.8928  14.9615  19.8924  23.7520  25.3878  26.6593

          k = 0.0000 0.1544 0.3746 (  2601 PWs)   bands (ev):

   -87.1308 -47.5902 -47.4741 -47.4607   5.0361   8.4266  13.2032  13.7924
    14.2166  14.5949  14.9770  20.6429  24.8447  24.8636  26.3233

          k = 0.0000 0.3089 0.0000 (  2579 PWs)   bands (ev):

   -87.1287 -47.5820 -47.5023 -47.4587   4.3274  11.7786  13.0238  13.0419
    14.5430  14.6786  16.3598  18.2861  21.7238  23.8789  27.0530

          k = 0.0000 0.3089 0.1249 (  2582 PWs)   bands (ev):

   -87.1287 -47.5833 -47.5022 -47.4587   4.5730  11.8872  12.3260  13.3404
    14.5433  14.6260  16.3299  17.1316  23.5928  24.1458  25.1809

          k = 0.0000 0.3089 0.2497 (  2588 PWs)   bands (ev):

   -87.1286 -47.5855 -47.5020 -47.4585   5.2598  10.9859  12.2317  13.4495
    14.4520  14.6065  15.3072  17.2876  22.5460  24.8259  26.7284

          k = 0.0000 0.3089 0.3746 (  2585 PWs)   bands (ev):

   -87.1286 -47.5873 -47.5018 -47.4584   6.1071   9.6340  12.5670  13.3951
    14.3497  14.6258  14.7448  17.9445  20.9305  25.5197  27.5674

          k = 0.0000 0.4633 0.0000 (  2566 PWs)   bands (ev):

   -87.1269 -47.5800 -47.5246 -47.4569   6.3578   9.1911  12.6311  13.3283
    14.2696  14.7397  16.0423  20.6065  22.1198  23.4889  25.8514

          k = 0.0000 0.4633 0.1249 (  2582 PWs)   bands (ev):

   -87.1269 -47.5811 -47.5245 -47.4568   6.5573   9.3867  12.4877  13.3384
    14.2879  14.6825  15.9482  18.7641  21.4185  24.8657  25.9646

          k = 0.0000 0.4633 0.2497 (  2590 PWs)   bands (ev):

   -87.1268 -47.5833 -47.5242 -47.4567   7.0807   9.9320  12.0675  13.2749
    14.3297  14.5580  15.4758  17.2581  19.3749  26.1870  27.5643

          k = 0.0000 0.4633 0.3746 (  2591 PWs)   bands (ev):

   -87.1267 -47.5851 -47.5240 -47.4566   7.6247  10.6595  11.4464  13.0081
    14.3648  14.4609  14.8746  16.8769  18.1474  26.3363  29.1310

          k = 0.1544 0.1544 0.0000 (  2568 PWs)   bands (ev):

   -87.1300 -47.5835 -47.4736 -47.4731   3.4748  12.7008  12.8892  13.6067
    14.3581  14.6987  17.2359  18.7007  20.0942  21.6282  28.9964

          k = 0.1544 0.1544 0.1249 (  2589 PWs)   bands (ev):

   -87.1300 -47.5847 -47.4735 -47.4730   3.7334  12.0910  12.9436  13.6489
    14.2156  14.7153  16.2543  19.0046  20.3519  23.5738  28.5686

          k = 0.1544 0.1544 0.2497 (  2592 PWs)   bands (ev):

   -87.1299 -47.5870 -47.4734 -47.4729   4.4653  10.4558  13.0911  13.8662
    13.9060  14.7449  15.2762  19.7454  21.0325  26.8303  26.9143

          k = 0.1544 0.1544 0.3746 (  2600 PWs)   bands (ev):

   -87.1298 -47.5890 -47.4732 -47.4728   5.4048   8.8378  13.2941  13.5991
    14.1684  14.6883  14.8223  20.4862  21.8466  25.3834  25.5323

          k = 0.1544 0.3089 0.0000 (  2578 PWs)   bands (ev):

   -87.1277 -47.5809 -47.5011 -47.4710   4.7432  12.0012  13.1145  13.1161
    14.3417  14.3543  16.4964  18.8699  20.7433  22.1565  27.2584

          k = 0.1544 0.3089 0.1249 (  2581 PWs)   bands (ev):

   -87.1277 -47.5821 -47.5010 -47.4709   4.9833  12.1023  12.4445  13.4488
    14.2007  14.4037  16.6501  17.4831  20.9655  24.2717  25.4403

          k = 0.1544 0.3089 0.2497 (  2588 PWs)   bands (ev):

   -87.1276 -47.5843 -47.5008 -47.4707   5.6521  11.2428  12.3351  13.6283
    14.0551  14.4568  15.7716  17.4322  21.4969  23.0144  27.5161

          k = 0.1544 0.3089 0.3746 (  2586 PWs)   bands (ev):

   -87.1275 -47.5861 -47.5006 -47.4706   6.4675   9.9793  12.5237  13.5806
    14.2999  14.4943  14.9279  18.1161  21.3448  22.0682  26.7468

          k = 0.1544 0.4633 0.0000 (  2589 PWs)   bands (ev):

   -87.1259 -47.5788 -47.5233 -47.4691   6.7356   9.5496  12.7720  13.4787
    14.0592  14.4265  16.0217  21.0296  21.9390  23.4106  23.8760

          k = 0.1544 0.4633 0.1249 (  2586 PWs)   bands (ev):

   -87.1259 -47.5799 -47.5232 -47.4690   6.9301   9.7374  12.5399  13.5411
    14.1731  14.3536  15.9971  19.1472  21.9090  22.5063  25.2586

          k = 0.1544 0.4633 0.2497 (  2596 PWs)   bands (ev):

   -87.1258 -47.5822 -47.5230 -47.4688   7.4413  10.2449  12.0387  13.5027
    14.2324  14.4711  15.7586  17.3968  19.7341  22.8351  26.4862

          k = 0.1544 0.4633 0.3746 (  2590 PWs)   bands (ev):

   -87.1257 -47.5839 -47.5228 -47.4687   7.9763  10.8494  11.4841  13.2266
    14.4553  14.6757  15.0656  16.8616  18.3418  23.2029  27.1573

          k = 0.3089 0.3089 0.0000 (  2588 PWs)   bands (ev):

   -87.1254 -47.5783 -47.4989 -47.4981   5.9575  12.3450  12.7789  13.2410
    13.8763  14.2004  16.3515  18.5697  20.1819  22.8229  25.4857

          k = 0.3089 0.3089 0.1249 (  2587 PWs)   bands (ev):

   -87.1254 -47.5794 -47.4988 -47.4980   6.1792  12.3031  12.6165  13.1840
    13.9526  14.2492  16.6904  18.5087  18.5784  24.3741  25.9316

          k = 0.3089 0.3089 0.2497 (  2579 PWs)   bands (ev):

   -87.1254 -47.5817 -47.4986 -47.4978   6.7879  11.6983  12.3368  13.5261
    14.0601  14.3432  16.6203  17.5985  18.5790  23.9238  24.2425

          k = 0.3089 0.3089 0.3746 (  2583 PWs)   bands (ev):

   -87.1253 -47.5835 -47.4984 -47.4977   7.5010  10.8082  12.1582  14.1183
    14.2219  14.4775  15.3210  18.5566  18.7448  21.9138  23.1572

          k = 0.3089 0.4633 0.0000 (  2576 PWs)   bands (ev):

   -87.1236 -47.5763 -47.5204 -47.4963   7.8094  10.5472  13.1096  13.2098
    13.8497  13.9969  15.9035  19.2855  21.7145  21.8889  24.6543

          k = 0.3089 0.4633 0.1249 (  2583 PWs)   bands (ev):

   -87.1236 -47.5773 -47.5203 -47.4962   7.9891  10.6850  12.4841  13.6183
    13.9943  14.1832  15.9929  19.2064  20.0804  22.0739  23.2294

          k = 0.3089 0.4633 0.2497 (  2584 PWs)   bands (ev):

   -87.1235 -47.5796 -47.5201 -47.4961   8.4624  10.9746  11.9002  13.7874
    14.1983  14.7850  16.1834  17.7938  19.2647  20.9200  22.5926

          k = 0.3089 0.4633 0.3746 (  2585 PWs)   bands (ev):

   -87.1235 -47.5813 -47.5199 -47.4959   8.9645  11.1566  11.4643  14.1297
    14.5945  15.2141  15.8434  16.7012  18.7573  19.9693  23.1105

          k = 0.4633 0.4633 0.0000 (  2586 PWs)   bands (ev):

   -87.1218 -47.5742 -47.5182 -47.5181   9.2614  11.6588  12.3814  13.3851
    13.4880  13.6963  15.7285  17.9547  19.4887  22.1285  26.4127

          k = 0.4633 0.4633 0.1249 (  2577 PWs)   bands (ev):

   -87.1218 -47.5752 -47.5181 -47.5180   9.4287  11.6251  11.9462  13.2872
    14.1397  14.2725  15.7942  17.6562  19.4217  21.2592  24.4748

          k = 0.4633 0.4633 0.2497 (  2582 PWs)   bands (ev):

   -87.1217 -47.5775 -47.5179 -47.5178   9.8565  11.4394  11.4654  13.8339
    15.0375  15.1033  16.2537  16.8129  18.8476  20.2768  22.1007

          k = 0.4633 0.4633 0.3746 (  2592 PWs)   bands (ev):

   -87.1217 -47.5791 -47.5178 -47.5176  10.2694  11.1678  11.3438  14.7532
    15.3254  15.6505  16.2440  17.4276  17.6620  19.6846  20.1122

     the Fermi energy is    16.7231 ev

!    total energy              =    -344.08432443 Ry
     estimated scf accuracy    <          2.7E-09 Ry
     smearing contrib. (-TS)   =       0.00060996 Ry
     internal energy E=F+TS    =    -344.08493439 Ry

     The total energy is F=E-TS. E is the sum of the following terms:
     one-electron contribution =    -221.33146861 Ry
     hartree contribution      =     124.21835601 Ry
     xc contribution           =     -46.17222260 Ry
     ewald contribution        =    -200.79959920 Ry

     convergence has been achieved in   3 iterations

     Forces acting on atoms (cartesian axes, Ry/au):

     atom    1 type  1   force =     0.00000000    0.00000000    0.00000000
     atom    2 type  2   force =     0.00000000    0.00000000    0.00000000

     Total force =     0.000000     Total SCF correction =     0.000000


     Computing stress (Cartesian axis) and pressure

          total   stress  (Ry/bohr**3)                   (kbar)     P=       19.31
   0.00019655   0.00000000   0.00000000           28.91        0.00        0.00
   0.00000000   0.00019655   0.00000000            0.00       28.91        0.00
   0.00000000   0.00000000   0.00000071            0.00        0.00        0.10

     Energy error            =      1.8E-06 Ry
     Gradient error          =      0.0E+00 Ry/Bohr
     Cell gradient error     =      1.0E-01 kbar

     bfgs converged in   5 scf cycles and   4 bfgs steps
     (criteria: energy <  1.0E-04 Ry, force <  1.0E-03 Ry/Bohr, cell <  5.0E-01 kbar)

     End of BFGS Geometry Optimization

     Final enthalpy           =    -344.0843244294 Ry

     File ./tmp/SiNi-relax.bfgs deleted, as requested
Begin final coordinates
     new unit-cell volume =    151.86733 a.u.^3 (    22.50442 Ang^3 )
     density =      6.40318 g/cm^3

CELL_PARAMETERS (alat=  5.37330365)
   0.925000000   0.000000000   0.000000000
   0.000000000   0.925000000   0.000000000
   0.000000000   0.000000000   1.144080941

ATOMIC_POSITIONS (crystal)
Si               0.0000000000        0.0000000000        0.0000000000
Ni               0.5000000000        0.5000000000        0.5000000000
End final coordinates



     Writing config-only to output data dir ./tmp/SiNi-relax.save/ :
     XML data file

     Final scf calculation at the relaxed structure.
     The G-vectors are recalculated for the final unit cell
     Results may differ from those at the preceding step.

     G-vector sticks info
     --------------------
     sticks:   dense  smooth     PW     G-vecs:    dense   smooth      PW
     Sum         869     869    249                23725    23725    3711

     Using Slab Decomposition



     bravais-lattice index     =            0
     lattice parameter (alat)  =       5.3733  a.u.
     unit-cell volume          =     151.8673 (a.u.)^3
     number of atoms/cell      =            2
     number of atomic types    =            2
     number of electrons       =        22.00
     number of Kohn-Sham states=           15
     kinetic-energy cutoff     =     110.0000  Ry
     charge density cutoff     =     440.0000  Ry
     scf convergence threshold =      1.0E-08
     mixing beta               =       0.7000
     number of iterations used =            8  plain     mixing
     press convergence thresh. =      5.0E-01
     Exchange-correlation= PBE
                           (   1   4   3   4   0   0   0)

     celldm(1)=   5.373304  celldm(2)=   0.000000  celldm(3)=   0.000000
     celldm(4)=   0.000000  celldm(5)=   0.000000  celldm(6)=   0.000000

     crystal axes: (cart. coord. in units of alat)
               a(1) = (   0.925000   0.000000   0.000000 )  
               a(2) = (   0.000000   0.925000   0.000000 )  
               a(3) = (   0.000000   0.000000   1.144081 )  

     reciprocal axes: (cart. coord. in units 2 pi/alat)
               b(1) = (  1.081081  0.000000  0.000000 )  
               b(2) = (  0.000000  1.081081  0.000000 )  
               b(3) = (  0.000000  0.000000  0.874064 )  


     PseudoPot. # 1 for Si read from file:
     ./PSEUDO/Si.upf
     MD5 check sum: 02fab3f35e82123ef5bf1cb05d5b1a5e
     Pseudo is Norm-conserving + core correction, Zval =  4.0
     Generated using ONCVPSP code by D. R. Hamann
     Using radial grid of 1510 points,  6 beta functions with: 
                l(1) =   0
                l(2) =   0
                l(3) =   1
                l(4) =   1
                l(5) =   2
                l(6) =   2

     PseudoPot. # 2 for Ni read from file:
     ./PSEUDO/Ni.upf
     MD5 check sum: 2b0a79d100e227970886d6963e34175b
     Pseudo is Norm-conserving + core correction, Zval = 18.0
     Generated using ONCVPSP code by D. R. Hamann
     Using radial grid of 1372 points,  6 beta functions with: 
                l(1) =   0
                l(2) =   0
                l(3) =   1
                l(4) =   1
                l(5) =   2
                l(6) =   2

     atomic species   valence    mass     pseudopotential
     Si                4.00    28.08550     Si( 1.00)
     Ni               18.00    58.69340     Ni( 1.00)

     16 Sym. Ops., with inversion, found



   Cartesian axes

     site n.     atom                  positions (alat units)
         1        Si     tau(   1) = (   0.0000000   0.0000000   0.0000000  )
         2        Ni     tau(   2) = (   0.4625000   0.4625000   0.5720405  )

     number of k points=    40  Methfessel-Paxton smearing, width (Ry)=  0.0400
                       cart. coord. in units 2pi/alat
        k(    1) = (   0.0000000   0.0000000   0.0000000), wk =   0.0058309
        k(    2) = (   0.0000000   0.0000000   0.1248663), wk =   0.0116618
        k(    3) = (   0.0000000   0.0000000   0.2497326), wk =   0.0116618
        k(    4) = (   0.0000000   0.0000000   0.3745989), wk =   0.0116618
        k(    5) = (   0.0000000   0.1544402   0.0000000), wk =   0.0233236
        k(    6) = (   0.0000000   0.1544402   0.1248663), wk =   0.0466472
        k(    7) = (   0.0000000   0.1544402   0.2497326), wk =   0.0466472
        k(    8) = (   0.0000000   0.1544402   0.3745989), wk =   0.0466472
        k(    9) = (   0.0000000   0.3088803   0.0000000), wk =   0.0233236
        k(   10) = (   0.0000000   0.3088803   0.1248663), wk =   0.0466472
        k(   11) = (   0.0000000   0.3088803   0.2497326), wk =   0.0466472
        k(   12) = (   0.0000000   0.3088803   0.3745989), wk =   0.0466472
        k(   13) = (   0.0000000   0.4633205   0.0000000), wk =   0.0233236
        k(   14) = (   0.0000000   0.4633205   0.1248663), wk =   0.0466472
        k(   15) = (   0.0000000   0.4633205   0.2497326), wk =   0.0466472
        k(   16) = (   0.0000000   0.4633205   0.3745989), wk =   0.0466472
        k(   17) = (   0.1544402   0.1544402   0.0000000), wk =   0.0233236
        k(   18) = (   0.1544402   0.1544402   0.1248663), wk =   0.0466472
        k(   19) = (   0.1544402   0.1544402   0.2497326), wk =   0.0466472
        k(   20) = (   0.1544402   0.1544402   0.3745989), wk =   0.0466472
        k(   21) = (   0.1544402   0.3088803   0.0000000), wk =   0.0466472
        k(   22) = (   0.1544402   0.3088803   0.1248663), wk =   0.0932945
        k(   23) = (   0.1544402   0.3088803   0.2497326), wk =   0.0932945
        k(   24) = (   0.1544402   0.3088803   0.3745989), wk =   0.0932945
        k(   25) = (   0.1544402   0.4633205   0.0000000), wk =   0.0466472
        k(   26) = (   0.1544402   0.4633205   0.1248663), wk =   0.0932945
        k(   27) = (   0.1544402   0.4633205   0.2497326), wk =   0.0932945
        k(   28) = (   0.1544402   0.4633205   0.3745989), wk =   0.0932945
        k(   29) = (   0.3088803   0.3088803   0.0000000), wk =   0.0233236
        k(   30) = (   0.3088803   0.3088803   0.1248663), wk =   0.0466472
        k(   31) = (   0.3088803   0.3088803   0.2497326), wk =   0.0466472
        k(   32) = (   0.3088803   0.3088803   0.3745989), wk =   0.0466472
        k(   33) = (   0.3088803   0.4633205   0.0000000), wk =   0.0466472
        k(   34) = (   0.3088803   0.4633205   0.1248663), wk =   0.0932945
        k(   35) = (   0.3088803   0.4633205   0.2497326), wk =   0.0932945
        k(   36) = (   0.3088803   0.4633205   0.3745989), wk =   0.0932945
        k(   37) = (   0.4633205   0.4633205   0.0000000), wk =   0.0233236
        k(   38) = (   0.4633205   0.4633205   0.1248663), wk =   0.0466472
        k(   39) = (   0.4633205   0.4633205   0.2497326), wk =   0.0466472
        k(   40) = (   0.4633205   0.4633205   0.3745989), wk =   0.0466472

     Dense  grid:    23725 G-vectors     FFT dimensions: (  36,  36,  45)

     Estimated max dynamical RAM per process >      53.80 MB

     Initial potential from superposition of free atoms

     starting charge      21.9992, renormalised to      22.0000
     Starting wfcs are   14 randomized atomic wfcs +    1 random wfcs

     total cpu time spent up to now is       63.5 secs

     Self-consistent Calculation

     iteration #  1     ecut=   110.00 Ry     beta= 0.70
     Davidson diagonalization with overlap
     ethr =  1.00E-06,  avg # of iterations = 12.1

     total cpu time spent up to now is       68.4 secs

     total energy              =    -343.95868664 Ry
     estimated scf accuracy    <       0.19850355 Ry

     iteration #  2     ecut=   110.00 Ry     beta= 0.70
     Davidson diagonalization with overlap
     ethr =  9.02E-04,  avg # of iterations =  2.7

     total cpu time spent up to now is       70.6 secs

     total energy              =    -343.72978256 Ry
     estimated scf accuracy    <       2.79034769 Ry

     iteration #  3     ecut=   110.00 Ry     beta= 0.70
     Davidson diagonalization with overlap
     ethr =  9.02E-04,  avg # of iterations =  2.5

     total cpu time spent up to now is       72.6 secs

     total energy              =    -344.08365456 Ry
     estimated scf accuracy    <       0.00661157 Ry

     iteration #  4     ecut=   110.00 Ry     beta= 0.70
     Davidson diagonalization with overlap
     ethr =  3.01E-05,  avg # of iterations =  1.9

     total cpu time spent up to now is       74.3 secs

     total energy              =    -344.08441904 Ry
     estimated scf accuracy    <       0.00065877 Ry

     iteration #  5     ecut=   110.00 Ry     beta= 0.70
     Davidson diagonalization with overlap
     ethr =  2.99E-06,  avg # of iterations =  1.7

     total cpu time spent up to now is       75.8 secs

     total energy              =    -344.08449007 Ry
     estimated scf accuracy    <       0.00002717 Ry

     iteration #  6     ecut=   110.00 Ry     beta= 0.70
     Davidson diagonalization with overlap
     ethr =  1.23E-07,  avg # of iterations =  2.2

     total cpu time spent up to now is       77.6 secs

     total energy              =    -344.08449709 Ry
     estimated scf accuracy    <       0.00000711 Ry

     iteration #  7     ecut=   110.00 Ry     beta= 0.70
     Davidson diagonalization with overlap
     ethr =  3.23E-08,  avg # of iterations =  1.4

     total cpu time spent up to now is       79.2 secs

     total energy              =    -344.08449769 Ry
     estimated scf accuracy    <       0.00000031 Ry

     iteration #  8     ecut=   110.00 Ry     beta= 0.70
     Davidson diagonalization with overlap
     ethr =  1.39E-09,  avg # of iterations =  2.8

     total cpu time spent up to now is       81.0 secs

     total energy              =    -344.08449778 Ry
     estimated scf accuracy    <       0.00000003 Ry

     iteration #  9     ecut=   110.00 Ry     beta= 0.70
     Davidson diagonalization with overlap
     ethr =  1.46E-10,  avg # of iterations =  1.4

     total cpu time spent up to now is       82.5 secs

     End of self-consistent calculation

          k = 0.0000 0.0000 0.0000 (  2985 PWs)   bands (ev):

   -87.1310 -47.5865 -47.4609 -47.4609   2.6073  12.4302  12.8615  14.5700
    14.5700  15.1202  15.3091  21.3149  21.9692  21.9692  24.1922

          k = 0.0000 0.0000 0.1249 (  2977 PWs)   bands (ev):

   -87.1310 -47.5876 -47.4608 -47.4608   2.8769  11.6966  12.9101  14.4810
    14.4810  14.7739  15.1254  22.3427  22.3427  23.0018  24.0843

          k = 0.0000 0.0000 0.2497 (  2968 PWs)   bands (ev):

   -87.1309 -47.5899 -47.4607 -47.4607   3.6464   9.8002  13.0227  14.2952
    14.2952  14.4994  15.1371  23.3488  23.3488  23.8328  26.1061

          k = 0.0000 0.0000 0.3746 (  2952 PWs)   bands (ev):

   -87.1308 -47.5918 -47.4606 -47.4606   4.6646   8.0004  13.1165  14.1581
    14.1581  14.5091  15.1465  23.6224  24.5946  24.5946  28.2720

          k = 0.0000 0.1544 0.0000 (  2969 PWs)   bands (ev):

   -87.1300 -47.5854 -47.4733 -47.4599   3.0434  12.5739  12.8471  13.7710
    14.6032  14.9281  16.4546  18.8776  21.4236  22.4849  26.0356

          k = 0.0000 0.1544 0.1249 (  2972 PWs)   bands (ev):

   -87.1300 -47.5864 -47.4732 -47.4598   3.3075  11.9091  12.8865  13.7512
    14.5185  14.9403  15.6541  19.1693  22.8298  23.2152  26.0050

          k = 0.0000 0.1544 0.2497 (  2962 PWs)   bands (ev):

   -87.1299 -47.5887 -47.4731 -47.4597   4.0581  10.1373  13.0417  13.7889
    14.3445  14.8923  14.9622  19.8924  23.7520  25.3877  26.6593

          k = 0.0000 0.1544 0.3746 (  2967 PWs)   bands (ev):

   -87.1298 -47.5906 -47.4730 -47.4596   5.0361   8.4266  13.2037  13.7923
    14.2164  14.5945  14.9778  20.6428  24.8446  24.8636  26.3232

          k = 0.0000 0.3089 0.0000 (  2951 PWs)   bands (ev):

   -87.1277 -47.5828 -47.5012 -47.4576   4.3274  11.7787  13.0237  13.0415
    14.5437  14.6784  16.3597  18.2860  21.7235  23.8789  26.9908

          k = 0.0000 0.3089 0.1249 (  2943 PWs)   bands (ev):

   -87.1277 -47.5838 -47.5011 -47.4576   4.5730  11.8872  12.3258  13.3404
    14.5439  14.6260  16.3297  17.1316  23.5926  24.1458  25.1809

          k = 0.0000 0.3089 0.2497 (  2956 PWs)   bands (ev):

   -87.1276 -47.5860 -47.5009 -47.4574   5.2598  10.9859  12.2317  13.4496
    14.4519  14.6071  15.3067  17.2876  22.5461  24.8258  26.7282

          k = 0.0000 0.3089 0.3746 (  2965 PWs)   bands (ev):

   -87.1275 -47.5878 -47.5007 -47.4573   6.1070   9.6340  12.5669  13.3955
    14.3495  14.6265  14.7444  17.9444  20.9306  25.5196  27.5674

          k = 0.0000 0.4633 0.0000 (  2950 PWs)   bands (ev):

   -87.1259 -47.5807 -47.5235 -47.4558   6.3577   9.1911  12.6310  13.3279
    14.2702  14.7395  16.0421  20.6063  22.1198  23.4888  25.8515

          k = 0.0000 0.4633 0.1249 (  2960 PWs)   bands (ev):

   -87.1259 -47.5816 -47.5234 -47.4557   6.5573   9.3867  12.4877  13.3383
    14.2885  14.6824  15.9480  18.7640  21.4184  24.8657  25.9647

          k = 0.0000 0.4633 0.2497 (  2960 PWs)   bands (ev):

   -87.1258 -47.5838 -47.5231 -47.4556   7.0807   9.9320  12.0675  13.2750
    14.3304  14.5579  15.4754  17.2581  19.3750  26.1869  27.5642

          k = 0.0000 0.4633 0.3746 (  2963 PWs)   bands (ev):

   -87.1257 -47.5855 -47.5229 -47.4555   7.6246  10.6595  11.4464  13.0084
    14.3655  14.4608  14.8741  16.8767  18.1476  26.3363  29.1310

          k = 0.1544 0.1544 0.0000 (  2952 PWs)   bands (ev):

   -87.1290 -47.5842 -47.4725 -47.4720   3.4748  12.7001  12.8896  13.6066
    14.3580  14.6994  17.2358  18.7008  20.0939  21.6279  28.9963

          k = 0.1544 0.1544 0.1249 (  2963 PWs)   bands (ev):

   -87.1290 -47.5852 -47.4724 -47.4719   3.7334  12.0908  12.9441  13.6487
    14.2155  14.7159  16.2540  19.0047  20.3517  23.5736  28.5686

          k = 0.1544 0.1544 0.2497 (  2957 PWs)   bands (ev):

   -87.1289 -47.5875 -47.4723 -47.4718   4.4652  10.4558  13.0915  13.8659
    13.9059  14.7455  15.2759  19.7454  21.0324  26.8304  26.9143

          k = 0.1544 0.1544 0.3746 (  2961 PWs)   bands (ev):

   -87.1288 -47.5893 -47.4721 -47.4717   5.4048   8.8378  13.2945  13.5991
    14.1682  14.6881  14.8228  20.4861  21.8465  25.3835  25.5324

          k = 0.1544 0.3089 0.0000 (  2954 PWs)   bands (ev):

   -87.1267 -47.5816 -47.5000 -47.4699   4.7431  12.0013  13.1142  13.1160
    14.3415  14.3547  16.4964  18.8698  20.7431  22.1564  27.2583

          k = 0.1544 0.3089 0.1249 (  2958 PWs)   bands (ev):

   -87.1267 -47.5826 -47.4999 -47.4698   4.9832  12.1023  12.4444  13.4488
    14.2007  14.4040  16.6501  17.4830  20.9654  24.2716  25.4402

          k = 0.1544 0.3089 0.2497 (  2953 PWs)   bands (ev):

   -87.1266 -47.5848 -47.4997 -47.4696   5.6520  11.2428  12.3351  13.6285
    14.0550  14.4572  15.7713  17.4322  21.4968  23.0145  27.5161

          k = 0.1544 0.3089 0.3746 (  2957 PWs)   bands (ev):

   -87.1265 -47.5866 -47.4995 -47.4695   6.4674   9.9793  12.5236  13.5810
    14.2998  14.4948  14.9276  18.1160  21.3449  22.0681  26.7469

          k = 0.1544 0.4633 0.0000 (  2959 PWs)   bands (ev):

   -87.1249 -47.5795 -47.5222 -47.4680   6.7356   9.5496  12.7719  13.4784
    14.0597  14.4263  16.0216  21.0295  21.9390  23.4107  23.8759

          k = 0.1544 0.4633 0.1249 (  2964 PWs)   bands (ev):

   -87.1249 -47.5805 -47.5221 -47.4679   6.9301   9.7374  12.5399  13.5410
    14.1735  14.3535  15.9971  19.1472  21.9090  22.5063  25.2585

          k = 0.1544 0.4633 0.2497 (  2963 PWs)   bands (ev):

   -87.1248 -47.5826 -47.5219 -47.4677   7.4413  10.2449  12.0387  13.5028
    14.2323  14.4716  15.7585  17.3968  19.7342  22.8350  26.4861

          k = 0.1544 0.4633 0.3746 (  2966 PWs)   bands (ev):

   -87.1247 -47.5843 -47.5217 -47.4676   7.9762  10.8493  11.4842  13.2269
    14.4552  14.6762  15.0653  16.8615  18.3420  23.2029  27.1572

          k = 0.3089 0.3089 0.0000 (  2958 PWs)   bands (ev):

   -87.1245 -47.5790 -47.4978 -47.4969   5.9575  12.3450  12.7791  13.2409
    13.8762  14.2001  16.3519  18.5694  20.1818  22.8229  25.4853

          k = 0.3089 0.3089 0.1249 (  2953 PWs)   bands (ev):

   -87.1244 -47.5800 -47.4977 -47.4969   6.1792  12.3032  12.6166  13.1839
    13.9527  14.2489  16.6907  18.5085  18.5782  24.3741  25.9316

          k = 0.3089 0.3089 0.2497 (  2968 PWs)   bands (ev):

   -87.1243 -47.5821 -47.4975 -47.4967   6.7878  11.6984  12.3367  13.5261
    14.0605  14.3431  16.6201  17.5986  18.5789  23.9239  24.2426

          k = 0.3089 0.3089 0.3746 (  2961 PWs)   bands (ev):

   -87.1243 -47.5838 -47.4973 -47.4966   7.5009  10.8083  12.1581  14.1189
    14.2222  14.4772  15.3208  18.5565  18.7447  21.9140  23.1573

          k = 0.3089 0.4633 0.0000 (  2968 PWs)   bands (ev):

   -87.1226 -47.5770 -47.5193 -47.4952   7.8094  10.5473  13.1095  13.2101
    13.8495  13.9965  15.9037  19.2855  21.7145  21.8885  24.6543

          k = 0.3089 0.4633 0.1249 (  2955 PWs)   bands (ev):

   -87.1226 -47.5779 -47.5192 -47.4951   7.9891  10.6850  12.4842  13.6181
    13.9943  14.1830  15.9931  19.2064  20.0804  22.0736  23.2293

          k = 0.3089 0.4633 0.2497 (  2945 PWs)   bands (ev):

   -87.1225 -47.5800 -47.5190 -47.4950   8.4624  10.9746  11.9004  13.7873
    14.1983  14.7852  16.1834  17.7938  19.2647  20.9201  22.5924

          k = 0.3089 0.4633 0.3746 (  2951 PWs)   bands (ev):

   -87.1224 -47.5817 -47.5189 -47.4948   8.9645  11.1565  11.4645  14.1300
    14.5942  15.2143  15.8434  16.7011  18.7575  19.9692  23.1104

          k = 0.4633 0.4633 0.0000 (  2976 PWs)   bands (ev):

   -87.1208 -47.5749 -47.5171 -47.5170   9.2615  11.6588  12.3814  13.3850
    13.4879  13.6959  15.7292  17.9549  19.4878  22.1285  26.4128

          k = 0.4633 0.4633 0.1249 (  2960 PWs)   bands (ev):

   -87.1208 -47.5758 -47.5170 -47.5169   9.4288  11.6252  11.9461  13.2869
    14.1397  14.2722  15.7948  17.6564  19.4209  21.2593  24.4748

          k = 0.4633 0.4633 0.2497 (  2949 PWs)   bands (ev):

   -87.1207 -47.5779 -47.5168 -47.5167   9.8566  11.4393  11.4655  13.8336
    15.0378  15.1032  16.2539  16.8130  18.8473  20.2768  22.1007

          k = 0.4633 0.4633 0.3746 (  2949 PWs)   bands (ev):

   -87.1206 -47.5795 -47.5167 -47.5165  10.2694  11.1677  11.3441  14.7527
    15.3260  15.6504  16.2438  17.4276  17.6620  19.6846  20.1121

     the Fermi energy is    16.7230 ev

!    total energy              =    -344.08449778 Ry
     estimated scf accuracy    <          4.8E-09 Ry
     smearing contrib. (-TS)   =       0.00060971 Ry
     internal energy E=F+TS    =    -344.08510748 Ry

     The total energy is F=E-TS. E is the sum of the following terms:
     one-electron contribution =    -221.33343218 Ry
     hartree contribution      =     124.22044378 Ry
     xc contribution           =     -46.17251989 Ry
     ewald contribution        =    -200.79959920 Ry

     convergence has been achieved in   9 iterations

     Forces acting on atoms (cartesian axes, Ry/au):

     atom    1 type  1   force =     0.00000000    0.00000000    0.00000000
     atom    2 type  2   force =     0.00000000    0.00000000    0.00000000

     Total force =     0.000000     Total SCF correction =     0.000000


     Computing stress (Cartesian axis) and pressure

          total   stress  (Ry/bohr**3)                   (kbar)     P=       23.30
   0.00020655   0.00000000   0.00000000           30.38        0.00        0.00
   0.00000000   0.00020655   0.00000000            0.00       30.38        0.00
   0.00000000   0.00000000   0.00006211            0.00        0.00        9.14


     Writing all to output data dir ./tmp/SiNi-relax.save/ :
     XML data file, charge density, pseudopotentials, collected wavefunctions

     init_run     :      2.36s CPU      2.46s WALL (       2 calls)
     electrons    :     71.19s CPU     74.00s WALL (       6 calls)
     update_pot   :      0.05s CPU      0.06s WALL (       4 calls)
     forces       :      1.47s CPU      1.50s WALL (       6 calls)
     stress       :      5.72s CPU      5.82s WALL (       6 calls)

     Called by init_run:
     wfcinit      :      1.49s CPU      1.56s WALL (       2 calls)
     potinit      :      0.22s CPU      0.22s WALL (       2 calls)
     hinit0       :      0.63s CPU      0.63s WALL (       2 calls)

     Called by electrons:
     c_bands      :     64.13s CPU     66.49s WALL (      40 calls)
     sum_band     :      6.56s CPU      6.98s WALL (      40 calls)
     v_of_rho     :      0.50s CPU      0.53s WALL (      44 calls)
     mix_rho      :      0.05s CPU      0.06s WALL (      40 calls)

     Called by c_bands:
     init_us_2    :      1.92s CPU      2.03s WALL (    3760 calls)
     cegterg      :     60.94s CPU     63.23s WALL (    1600 calls)

     Called by *egterg:
     cdiaghg      :      0.87s CPU      0.93s WALL (    6094 calls)
     h_psi        :     44.76s CPU     46.80s WALL (    6414 calls)
     g_psi        :      0.34s CPU      0.36s WALL (    4734 calls)

     Called by h_psi:
     h_psi:calbec :      5.86s CPU      6.03s WALL (    6414 calls)
     vloc_psi     :     33.14s CPU     34.91s WALL (    6414 calls)
                                        0.00s GPU  (    6414 calls)
     add_vuspsi   :      5.48s CPU      5.60s WALL (    6414 calls)

     General routines
     calbec       :     10.63s CPU     10.92s WALL (   10494 calls)
     fft          :      0.21s CPU      0.21s WALL (     590 calls)
     ffts         :      0.01s CPU      0.02s WALL (      40 calls)
     fftw         :     33.06s CPU     35.59s WALL (  162782 calls)


     PWSCF        :   1m20.89s CPU   1m23.96s WALL


   This run was terminated on:  21:28: 4   7Jan2026            

=------------------------------------------------------------------------------=
   JOB DONE.
=------------------------------------------------------------------------------=
