
     Program PWSCF v.7.5 starts on  7Jan2026 at 20:35:46 

     This program is part of the open-source Quantum ESPRESSO suite
     for quantum simulation of materials; please cite
         "P. Giannozzi et al., J. Phys.:Condens. Matter 21 395502 (2009);
         "P. Giannozzi et al., J. Phys.:Condens. Matter 29 465901 (2017);
         "P. Giannozzi et al., J. Chem. Phys. 152 154105 (2020);
          URL http://www.quantum-espresso.org", 
     in publications or presentations arising from this work. More details at
     http://www.quantum-espresso.org/quote

     Serial version
     849 MiB available memory on the printing compute node when the environment starts

     Waiting for input...
     Reading input from standard input

     Current dimensions of program PWSCF are:
     Max number of different atomic species (ntypx) = 10
     Max number of k-points (npk) =  40000
     Max angular momentum in pseudopotentials (lmaxx) =  4
     Message from routine setup:
     using ibrav=0 with symmetry is DISCOURAGED, use correct ibrav instead


     G-vector sticks info
     --------------------
     sticks:   dense  smooth     PW     G-vecs:    dense   smooth      PW
     Sum         749     749    221                21839    21839    3547

     Using Slab Decomposition



     bravais-lattice index     =            0
     lattice parameter (alat)  =       5.3733  a.u.
     unit-cell volume          =     139.9199 (a.u.)^3
     number of atoms/cell      =            2
     number of atomic types    =            2
     number of electrons       =        22.00
     number of Kohn-Sham states=           15
     kinetic-energy cutoff     =     110.0000  Ry
     charge density cutoff     =     440.0000  Ry
     scf convergence threshold =      1.0E-06
     mixing beta               =       0.7000
     number of iterations used =            8  plain     mixing
     energy convergence thresh.=      1.0E-04
     force convergence thresh. =      1.0E-03
     press convergence thresh. =      5.0E-01
     Exchange-correlation= PBE
                           (   1   4   3   4   0   0   0)
     nstep                     =           50


     celldm(1)=   5.373304  celldm(2)=   0.000000  celldm(3)=   0.000000
     celldm(4)=   0.000000  celldm(5)=   0.000000  celldm(6)=   0.000000

     crystal axes: (cart. coord. in units of alat)
               a(1) = (   0.860000   0.000000   0.000000 )  
               a(2) = (   0.000000   0.860000   0.000000 )  
               a(3) = (   0.000000   0.000000   1.219434 )  

     reciprocal axes: (cart. coord. in units 2 pi/alat)
               b(1) = (  1.162791  0.000000  0.000000 )  
               b(2) = (  0.000000  1.162791  0.000000 )  
               b(3) = (  0.000000  0.000000  0.820053 )  


     PseudoPot. # 1 for Si read from file:
     ./PSEUDO/Si.upf
     MD5 check sum: 02fab3f35e82123ef5bf1cb05d5b1a5e
     Pseudo is Norm-conserving + core correction, Zval =  4.0
     Generated using ONCVPSP code by D. R. Hamann
     Using radial grid of 1510 points,  6 beta functions with: 
                l(1) =   0
                l(2) =   0
                l(3) =   1
                l(4) =   1
                l(5) =   2
                l(6) =   2

     PseudoPot. # 2 for Ni read from file:
     ./PSEUDO/Ni.upf
     MD5 check sum: 2b0a79d100e227970886d6963e34175b
     Pseudo is Norm-conserving + core correction, Zval = 18.0
     Generated using ONCVPSP code by D. R. Hamann
     Using radial grid of 1372 points,  6 beta functions with: 
                l(1) =   0
                l(2) =   0
                l(3) =   1
                l(4) =   1
                l(5) =   2
                l(6) =   2

     atomic species   valence    mass     pseudopotential
     Si                4.00    28.08550     Si( 1.00)
     Ni               18.00    58.69340     Ni( 1.00)

     16 Sym. Ops., with inversion, found



   Cartesian axes

     site n.     atom                  positions (alat units)
         1        Si     tau(   1) = (   0.0000000   0.0000000   0.0000000  )
         2        Ni     tau(   2) = (   0.4300000   0.4300000   0.6097170  )

     number of k points=    40  Methfessel-Paxton smearing, width (Ry)=  0.0400
                       cart. coord. in units 2pi/alat
        k(    1) = (   0.0000000   0.0000000   0.0000000), wk =   0.0058309
        k(    2) = (   0.0000000   0.0000000   0.1171504), wk =   0.0116618
        k(    3) = (   0.0000000   0.0000000   0.2343007), wk =   0.0116618
        k(    4) = (   0.0000000   0.0000000   0.3514511), wk =   0.0116618
        k(    5) = (   0.0000000   0.1661130   0.0000000), wk =   0.0233236
        k(    6) = (   0.0000000   0.1661130   0.1171504), wk =   0.0466472
        k(    7) = (   0.0000000   0.1661130   0.2343007), wk =   0.0466472
        k(    8) = (   0.0000000   0.1661130   0.3514511), wk =   0.0466472
        k(    9) = (   0.0000000   0.3322259   0.0000000), wk =   0.0233236
        k(   10) = (   0.0000000   0.3322259   0.1171504), wk =   0.0466472
        k(   11) = (   0.0000000   0.3322259   0.2343007), wk =   0.0466472
        k(   12) = (   0.0000000   0.3322259   0.3514511), wk =   0.0466472
        k(   13) = (   0.0000000   0.4983389   0.0000000), wk =   0.0233236
        k(   14) = (   0.0000000   0.4983389   0.1171504), wk =   0.0466472
        k(   15) = (   0.0000000   0.4983389   0.2343007), wk =   0.0466472
        k(   16) = (   0.0000000   0.4983389   0.3514511), wk =   0.0466472
        k(   17) = (   0.1661130   0.1661130   0.0000000), wk =   0.0233236
        k(   18) = (   0.1661130   0.1661130   0.1171504), wk =   0.0466472
        k(   19) = (   0.1661130   0.1661130   0.2343007), wk =   0.0466472
        k(   20) = (   0.1661130   0.1661130   0.3514511), wk =   0.0466472
        k(   21) = (   0.1661130   0.3322259   0.0000000), wk =   0.0466472
        k(   22) = (   0.1661130   0.3322259   0.1171504), wk =   0.0932945
        k(   23) = (   0.1661130   0.3322259   0.2343007), wk =   0.0932945
        k(   24) = (   0.1661130   0.3322259   0.3514511), wk =   0.0932945
        k(   25) = (   0.1661130   0.4983389   0.0000000), wk =   0.0466472
        k(   26) = (   0.1661130   0.4983389   0.1171504), wk =   0.0932945
        k(   27) = (   0.1661130   0.4983389   0.2343007), wk =   0.0932945
        k(   28) = (   0.1661130   0.4983389   0.3514511), wk =   0.0932945
        k(   29) = (   0.3322259   0.3322259   0.0000000), wk =   0.0233236
        k(   30) = (   0.3322259   0.3322259   0.1171504), wk =   0.0466472
        k(   31) = (   0.3322259   0.3322259   0.2343007), wk =   0.0466472
        k(   32) = (   0.3322259   0.3322259   0.3514511), wk =   0.0466472
        k(   33) = (   0.3322259   0.4983389   0.0000000), wk =   0.0466472
        k(   34) = (   0.3322259   0.4983389   0.1171504), wk =   0.0932945
        k(   35) = (   0.3322259   0.4983389   0.2343007), wk =   0.0932945
        k(   36) = (   0.3322259   0.4983389   0.3514511), wk =   0.0932945
        k(   37) = (   0.4983389   0.4983389   0.0000000), wk =   0.0233236
        k(   38) = (   0.4983389   0.4983389   0.1171504), wk =   0.0466472
        k(   39) = (   0.4983389   0.4983389   0.2343007), wk =   0.0466472
        k(   40) = (   0.4983389   0.4983389   0.3514511), wk =   0.0466472

     Dense  grid:    21839 G-vectors     FFT dimensions: (  32,  32,  45)

     Estimated max dynamical RAM per process >      49.27 MB

     Initial potential from superposition of free atoms

     starting charge      21.9992, renormalised to      22.0000
     Starting wfcs are   14 randomized atomic wfcs +    1 random wfcs

     total cpu time spent up to now is        1.2 secs

     Self-consistent Calculation

     iteration #  1     ecut=   110.00 Ry     beta= 0.70
     Davidson diagonalization with overlap
     ethr =  1.00E-02,  avg # of iterations =  4.0

     Threshold (ethr) on eigenvalues was too large:
     Diagonalizing with lowered threshold

     Davidson diagonalization with overlap
     ethr =  7.85E-04,  avg # of iterations =  1.1

     total cpu time spent up to now is        4.4 secs

     total energy              =    -343.96307301 Ry
     estimated scf accuracy    <       0.16726193 Ry

     iteration #  2     ecut=   110.00 Ry     beta= 0.70
     Davidson diagonalization with overlap
     ethr =  7.60E-04,  avg # of iterations =  2.7

     total cpu time spent up to now is        6.3 secs

     total energy              =    -343.79331798 Ry
     estimated scf accuracy    <       2.14191785 Ry

     iteration #  3     ecut=   110.00 Ry     beta= 0.70
     Davidson diagonalization with overlap
     ethr =  7.60E-04,  avg # of iterations =  2.2

     total cpu time spent up to now is        8.0 secs

     total energy              =    -344.06682895 Ry
     estimated scf accuracy    <       0.00572708 Ry

     iteration #  4     ecut=   110.00 Ry     beta= 0.70
     Davidson diagonalization with overlap
     ethr =  2.60E-05,  avg # of iterations =  2.4

     total cpu time spent up to now is        9.5 secs

     total energy              =    -344.06751654 Ry
     estimated scf accuracy    <       0.00047565 Ry

     iteration #  5     ecut=   110.00 Ry     beta= 0.70
     Davidson diagonalization with overlap
     ethr =  2.16E-06,  avg # of iterations =  2.5

     total cpu time spent up to now is       10.9 secs

     total energy              =    -344.06757415 Ry
     estimated scf accuracy    <       0.00001170 Ry

     iteration #  6     ecut=   110.00 Ry     beta= 0.70
     Davidson diagonalization with overlap
     ethr =  5.32E-08,  avg # of iterations =  2.4

     total cpu time spent up to now is       12.5 secs

     total energy              =    -344.06757782 Ry
     estimated scf accuracy    <       0.00000254 Ry

     iteration #  7     ecut=   110.00 Ry     beta= 0.70
     Davidson diagonalization with overlap
     ethr =  1.16E-08,  avg # of iterations =  1.6

     total cpu time spent up to now is       13.9 secs

     End of self-consistent calculation

          k = 0.0000 0.0000 0.0000 (  2725 PWs)   bands (ev):

   -85.4780 -45.9687 -45.7643 -45.7643   3.3729  13.3361  14.2090  14.7841
    16.3355  16.3355  17.1458  21.3681  25.9493  25.9493  26.2553

          k = 0.0000 0.0000 0.1172 (  2738 PWs)   bands (ev):

   -85.4780 -45.9693 -45.7643 -45.7643   3.5979  12.1789  14.2379  15.0745
    16.2895  16.2895  17.1477  22.6150  26.1358  26.2462  26.2462

          k = 0.0000 0.0000 0.2343 (  2734 PWs)   bands (ev):

   -85.4780 -45.9705 -45.7642 -45.7642   4.2235  10.2661  14.3040  15.3020
    16.1895  16.1895  17.1520  25.3604  25.8700  27.0484  27.0484

          k = 0.0000 0.0000 0.3515 (  2718 PWs)   bands (ev):

   -85.4779 -45.9714 -45.7642 -45.7642   4.9781   8.7624  14.3583  15.4093
    16.1127  16.1127  17.1554  25.6595  27.9879  27.9879  28.0686

          k = 0.0000 0.1661 0.0000 (  2739 PWs)   bands (ev):

   -85.4752 -45.9659 -45.7921 -45.7620   3.8768  13.6161  14.2778  14.3370
    16.3788  16.9298  17.1186  21.4565  21.6187  26.4783  29.1086

          k = 0.0000 0.1661 0.1172 (  2729 PWs)   bands (ev):

   -85.4752 -45.9664 -45.7921 -45.7620   4.0956  12.4878  14.3168  14.7596
    16.3356  16.7319  16.9338  21.7794  22.8952  26.7537  28.9972

          k = 0.0000 0.1661 0.2343 (  2721 PWs)   bands (ev):

   -85.4752 -45.9676 -45.7920 -45.7619   4.7010  10.6953  14.4156  15.1081
    16.2002  16.2419  16.9420  22.2685  25.7487  27.4882  28.6834

          k = 0.0000 0.1661 0.3515 (  2721 PWs)   bands (ev):

   -85.4752 -45.9685 -45.7919 -45.7619   5.4192   9.2705  14.5017  15.4084
    15.7725  16.1700  16.9480  22.7161  27.9676  28.3112  28.3320

          k = 0.0000 0.3322 0.0000 (  2723 PWs)   bands (ev):

   -85.4690 -45.9596 -45.8543 -45.7569   5.3605  13.5547  13.7531  14.2764
    16.4772  16.4858  18.3812  18.7784  21.8910  27.9458  28.2623

          k = 0.0000 0.3322 0.1172 (  2724 PWs)   bands (ev):

   -85.4690 -45.9601 -45.8543 -45.7568   5.5594  13.0715  13.6398  14.5349
    16.4370  16.4957  17.5697  18.7101  23.6088  26.8268  28.1622

          k = 0.0000 0.3322 0.2343 (  2724 PWs)   bands (ev):

   -85.4690 -45.9612 -45.8541 -45.7568   6.0990  11.8101  13.8603  14.7226
    16.3598  16.4332  16.5068  19.1574  24.7100  26.9284  28.7114

          k = 0.0000 0.3322 0.3515 (  2735 PWs)   bands (ev):

   -85.4689 -45.9620 -45.8541 -45.7568   6.7051  10.7053  14.1028  14.7569
    15.8649  16.3001  16.5150  19.6419  23.5791  29.2545  29.3293

          k = 0.0000 0.4983 0.0000 (  2720 PWs)   bands (ev):

   -85.4640 -45.9546 -45.9040 -45.7527   7.7340  10.7963  13.4164  14.6485
    16.1623  16.5571  18.0553  21.0217  22.5539  24.4822  28.3127

          k = 0.0000 0.4983 0.1172 (  2720 PWs)   bands (ev):

   -85.4640 -45.9550 -45.9039 -45.7527   7.8896  10.9020  13.3928  14.6316
    16.1685  16.5268  17.7391  19.7016  22.4238  25.4752  30.2681

          k = 0.0000 0.4983 0.2343 (  2743 PWs)   bands (ev):

   -85.4640 -45.9560 -45.9038 -45.7527   8.2776  11.2152  13.2543  14.5477
    16.1827  16.4596  16.7339  18.7765  21.1249  28.2798  30.4921

          k = 0.0000 0.4983 0.3515 (  2745 PWs)   bands (ev):

   -85.4639 -45.9568 -45.9036 -45.7526   8.6372  11.7057  12.8123  14.4277
    16.0274  16.1943  16.4066  18.3662  20.4161  30.6442  30.8472

          k = 0.1661 0.1661 0.0000 (  2729 PWs)   bands (ev):

   -85.4725 -45.9631 -45.7904 -45.7889   4.3755  13.8565  14.2253  14.4040
    16.0206  16.6776  17.9692  21.1025  21.6688  23.6153  32.7033

          k = 0.1661 0.1661 0.1172 (  2720 PWs)   bands (ev):

   -85.4725 -45.9636 -45.7903 -45.7889   4.5882  12.7662  14.4462  14.7329
    15.9107  16.6792  17.3776  21.3272  23.0954  23.9482  31.4426

          k = 0.1661 0.1661 0.2343 (  2731 PWs)   bands (ev):

   -85.4724 -45.9648 -45.7903 -45.7889   5.1734  11.1041  14.5579  15.1599
    15.6630  16.5990  16.7671  21.8632  24.1612  26.5100  29.6962

          k = 0.1661 0.1661 0.3515 (  2726 PWs)   bands (ev):

   -85.4724 -45.9657 -45.7902 -45.7888   5.8569   9.7616  14.6799  15.4451
    15.5327  16.1622  16.7246  22.3505  24.7257  28.5831  28.9268

          k = 0.1661 0.3322 0.0000 (  2719 PWs)   bands (ev):

   -85.4663 -45.9569 -45.8515 -45.7842   5.8423  13.7585  13.8982  14.5225
    15.9440  16.2620  18.4944  19.5475  22.2345  24.1644  28.5926

          k = 0.1661 0.3322 0.1172 (  2726 PWs)   bands (ev):

   -85.4663 -45.9573 -45.8515 -45.7841   6.0350  13.2904  13.8423  14.7625
    15.8403  16.2826  18.2407  18.8513  23.7380  24.6820  27.2257

          k = 0.1661 0.3322 0.2343 (  2722 PWs)   bands (ev):

   -85.4662 -45.9584 -45.8514 -45.7841   6.5551  12.1433  14.0058  14.9892
    15.6802  16.3153  17.0839  19.3225  24.4257  25.3096  27.6180

          k = 0.1661 0.3322 0.3515 (  2726 PWs)   bands (ev):

   -85.4662 -45.9592 -45.8513 -45.7840   7.1314  11.1229  14.1521  15.0252
    15.7765  16.3103  16.3974  19.8598  24.0372  24.8112  30.1548

          k = 0.1661 0.4983 0.0000 (  2725 PWs)   bands (ev):

   -85.4613 -45.9519 -45.9009 -45.7798   8.1797  11.1834  13.6225  14.9392
    15.8536  16.0493  18.0270  21.7452  23.1211  24.7849  26.2717

          k = 0.1661 0.4983 0.1172 (  2723 PWs)   bands (ev):

   -85.4613 -45.9523 -45.9009 -45.7797   8.3283  11.2890  13.5243  14.9602
    15.9197  16.0159  17.8891  20.2140  23.0700  25.1434  26.8758

          k = 0.1661 0.4983 0.2343 (  2733 PWs)   bands (ev):

   -85.4612 -45.9533 -45.9007 -45.7797   8.6988  11.5843  13.2773  14.9037
    15.8623  16.2372  17.2869  18.9491  21.5227  25.9271  28.8672

          k = 0.1661 0.4983 0.3515 (  2739 PWs)   bands (ev):

   -85.4612 -45.9540 -45.9006 -45.7796   9.0436  11.9830  12.9279  14.6944
    15.9476  16.5147  16.5575  18.4432  20.6204  26.2565  29.8635

          k = 0.3322 0.3322 0.0000 (  2727 PWs)   bands (ev):

   -85.4601 -45.9507 -45.8464 -45.8442   7.2514  13.9742  14.1498  14.6790
    15.3081  16.0594  18.2438  21.0481  21.3859  23.3498  28.7810

          k = 0.3322 0.3322 0.1172 (  2718 PWs)   bands (ev):

   -85.4601 -45.9512 -45.8464 -45.8442   7.4238  13.5755  14.4232  14.4387
    15.4741  16.0972  18.5600  19.5717  21.3663  25.2136  28.1234

          k = 0.3322 0.3322 0.2343 (  2725 PWs)   bands (ev):

   -85.4601 -45.9521 -45.8463 -45.8441   7.8801  12.8322  14.0631  14.9501
    15.6465  16.1701  17.8954  19.3801  21.2750  26.1229  26.8413

          k = 0.3322 0.3322 0.3515 (  2720 PWs)   bands (ev):

   -85.4600 -45.9529 -45.8462 -45.8440   8.3642  12.1269  13.8507  15.6645
    15.7224  16.2201  16.6694  20.2820  21.1784  24.5046  26.2729

          k = 0.3322 0.4983 0.0000 (  2715 PWs)   bands (ev):

   -85.4552 -45.9458 -45.8941 -45.8403   9.4472  12.2283  14.1282  14.9524
    15.2219  15.7903  17.8771  22.1567  22.8887  24.3894  25.9329

          k = 0.3322 0.4983 0.1172 (  2721 PWs)   bands (ev):

   -85.4551 -45.9462 -45.8941 -45.8403   9.5739  12.3075  13.7304  15.0723
    15.5518  15.9145  17.9268  21.3670  22.0642  24.4634  24.8081

          k = 0.3322 0.4983 0.2343 (  2724 PWs)   bands (ev):

   -85.4551 -45.9471 -45.8940 -45.8402   9.8889  12.4607  13.2319  15.2414
    15.8811  16.4947  17.9181  19.5130  21.6921  22.8770  25.0313

          k = 0.3322 0.4983 0.3515 (  2723 PWs)   bands (ev):

   -85.4551 -45.9479 -45.8939 -45.8401  10.1845  12.5453  12.9250  15.7505
    16.0386  16.9050  17.4450  18.6295  21.1128  22.2059  25.2706

          k = 0.4983 0.4983 0.0000 (  2707 PWs)   bands (ev):

   -85.4502 -45.9409 -45.8889 -45.8884  11.1760  13.2731  14.3606  14.5616
    14.7388  15.5648  17.7560  20.5602  21.9456  23.5364  27.3847

          k = 0.4983 0.4983 0.1172 (  2715 PWs)   bands (ev):

   -85.4502 -45.9413 -45.8888 -45.8884  11.2761  13.1577  13.6233  14.6611
    15.7076  16.0095  17.8039  20.1994  21.6483  23.0172  25.8797

          k = 0.4983 0.4983 0.2343 (  2721 PWs)   bands (ev):

   -85.4502 -45.9422 -45.8887 -45.8883  11.5092  12.9134  13.0065  15.2571
    16.8334  16.8413  18.1246  19.3687  20.5278  22.2601  23.7838

          k = 0.4983 0.4983 0.3515 (  2735 PWs)   bands (ev):

   -85.4502 -45.9429 -45.8887 -45.8882  11.6937  12.6908  12.7799  16.1655
    17.2860  17.4767  18.6728  19.1757  19.2808  21.6168  21.7945

     the Fermi energy is    18.4635 ev

!    total energy              =    -344.06757804 Ry
     estimated scf accuracy    <       0.00000006 Ry
     smearing contrib. (-TS)   =      -0.00004455 Ry
     internal energy E=F+TS    =    -344.06753349 Ry

     The total energy is F=E-TS. E is the sum of the following terms:
     one-electron contribution =    -218.58588758 Ry
     hartree contribution      =     124.16494697 Ry
     xc contribution           =     -46.30762383 Ry
     ewald contribution        =    -203.33896906 Ry

     convergence has been achieved in   7 iterations

     Forces acting on atoms (cartesian axes, Ry/au):

     atom    1 type  1   force =     0.00000000    0.00000000    0.00000000
     atom    2 type  2   force =     0.00000000    0.00000000    0.00000000

     Total force =     0.000000     Total SCF correction =     0.000000


     Computing stress (Cartesian axis) and pressure

          total   stress  (Ry/bohr**3)                   (kbar)     P=      210.93
   0.00188355   0.00000000   0.00000000          277.08        0.00        0.00
   0.00000000   0.00188355   0.00000000            0.00      277.08        0.00
   0.00000000   0.00000000   0.00053455            0.00        0.00       78.63


     BFGS Geometry Optimization
     Energy error            =      9.9E-04 Ry
     Gradient error          =      0.0E+00 Ry/Bohr
     Cell gradient error     =      7.9E+01 kbar

     number of scf cycles    =   1
     number of bfgs steps    =   0

     enthalpy           new  =    -344.0675780429 Ry

     new trust radius        =       0.0316152236 bohr
     new conv_thr            =       0.0000010000 Ry

     new unit-cell volume =    141.78971 a.u.^3 (    21.01107 Ang^3 )
     density =      6.85828 g/cm^3

CELL_PARAMETERS (alat=  5.37330365)
   0.860000000   0.000000000   0.000000000
   0.000000000   0.860000000   0.000000000
   0.000000000   0.000000000   1.235730160

ATOMIC_POSITIONS (crystal)
Si               0.0000000000        0.0000000000        0.0000000000
Ni               0.5000000000        0.5000000000        0.5000000000



     Writing config-only to output data dir ./tmp/SiNi-relax.save/ :
     XML data file
     NEW-OLD atomic charge density approx. for the potential
     New effective cutoffs (rho, wfc):  438.82  109.96

     total cpu time spent up to now is       15.2 secs

     Self-consistent Calculation

     iteration #  1     ecut=   110.00 Ry     beta= 0.70
     Davidson diagonalization with overlap
     ethr =  1.00E-06,  avg # of iterations =  5.5

     total cpu time spent up to now is       18.6 secs

     total energy              =    -344.06817513 Ry
     estimated scf accuracy    <       0.00021908 Ry

     iteration #  2     ecut=   110.00 Ry     beta= 0.70
     Davidson diagonalization with overlap
     ethr =  9.96E-07,  avg # of iterations =  2.6

     total cpu time spent up to now is       20.5 secs

     total energy              =    -344.06799779 Ry
     estimated scf accuracy    <       0.00255203 Ry

     iteration #  3     ecut=   110.00 Ry     beta= 0.70
     Davidson diagonalization with overlap
     ethr =  9.96E-07,  avg # of iterations =  2.4

     total cpu time spent up to now is       22.3 secs

     total energy              =    -344.06831476 Ry
     estimated scf accuracy    <       0.00000119 Ry

     iteration #  4     ecut=   110.00 Ry     beta= 0.70
     Davidson diagonalization with overlap
     ethr =  5.43E-09,  avg # of iterations =  3.7

     total cpu time spent up to now is       24.3 secs

     End of self-consistent calculation

          k = 0.0000 0.0000 0.0000 (  2725 PWs)   bands (ev):

   -85.7123 -46.1986 -45.9977 -45.9977   3.1940  13.1061  14.0057  14.3614
    16.1205  16.1205  16.9252  20.8496  25.7636  25.7636  25.9767

          k = 0.0000 0.0000 0.1156 (  2738 PWs)   bands (ev):

   -85.7123 -46.1990 -45.9977 -45.9977   3.4101  11.8945  14.0319  14.7436
    16.0786  16.0786  16.9268  22.0579  25.8646  26.0468  26.0468

          k = 0.0000 0.0000 0.2312 (  2734 PWs)   bands (ev):

   -85.7123 -46.2000 -45.9977 -45.9977   4.0089  10.0038  14.0919  15.0101
    15.9873  15.9873  16.9305  24.7531  25.6155  26.8095  26.8095

          k = 0.0000 0.0000 0.3468 (  2718 PWs)   bands (ev):

   -85.7122 -46.2008 -45.9977 -45.9977   4.7213   8.5504  14.1411  15.1252
    15.9170  15.9170  16.9335  25.4184  27.4870  27.6888  27.6888

          k = 0.0000 0.1661 0.0000 (  2739 PWs)   bands (ev):

   -85.7095 -46.1958 -46.0254 -45.9955   3.6973  13.3945  13.9984  14.0808
    16.1632  16.7129  16.8170  20.9714  21.3422  26.2855  28.8471

          k = 0.0000 0.1661 0.1156 (  2729 PWs)   bands (ev):

   -85.7095 -46.1962 -46.0254 -45.9955   3.9076  12.2096  14.1174  14.4897
    16.1239  16.4586  16.7164  21.5239  22.3426  26.5477  28.7364

          k = 0.0000 0.1661 0.2312 (  2721 PWs)   bands (ev):

   -85.7095 -46.1972 -46.0254 -45.9954   4.4867  10.4376  14.2078  14.8586
    15.9574  16.0386  16.7236  21.9879  25.1588  27.2446  28.4170

          k = 0.0000 0.1661 0.3468 (  2721 PWs)   bands (ev):

   -85.7095 -46.1979 -46.0253 -45.9954   5.1648   9.0594  14.2856  15.1557
    15.5525  15.9729  16.7290  22.4105  27.5964  27.9990  28.0145

          k = 0.0000 0.3322 0.0000 (  2723 PWs)   bands (ev):

   -85.7033 -46.1895 -46.0875 -45.9903   5.1803  13.3923  13.4826  14.0589
    16.2601  16.2755  18.1027  18.4026  21.3951  27.7379  27.8339

          k = 0.0000 0.3322 0.1156 (  2724 PWs)   bands (ev):

   -85.7033 -46.1899 -46.0874 -45.9903   5.3712  12.8130  13.4730  14.3076
    16.2242  16.2840  17.2450  18.4053  23.0948  26.4412  27.9427

          k = 0.0000 0.3322 0.2312 (  2724 PWs)   bands (ev):

   -85.7033 -46.1908 -46.0873 -45.9903   5.8870  11.5692  13.6828  14.4967
    16.1470  16.1540  16.2941  18.8380  24.4093  26.3583  28.4610

          k = 0.0000 0.3322 0.3468 (  2735 PWs)   bands (ev):

   -85.7033 -46.1915 -46.0873 -45.9903   6.4597  10.4979  13.9127  14.5386
    15.5969  16.0998  16.3015  19.2939  23.3294  28.8783  28.9690

          k = 0.0000 0.4983 0.0000 (  2720 PWs)   bands (ev):

   -85.6983 -46.1845 -46.1370 -45.9862   7.5551  10.6259  13.1753  14.4289
    15.9560  16.3388  17.7916  20.6073  22.1176  24.0520  27.7763

          k = 0.0000 0.4983 0.1156 (  2720 PWs)   bands (ev):

   -85.6983 -46.1848 -46.1369 -45.9862   7.7039  10.7251  13.1604  14.4101
    15.9616  16.3115  17.4569  19.3298  22.0494  24.9914  29.4457

          k = 0.0000 0.4983 0.2312 (  2743 PWs)   bands (ev):

   -85.6983 -46.1856 -46.1368 -45.9862   8.0737  11.0210  13.0392  14.3264
    15.9742  16.2511  16.4396  18.4357  20.8207  27.7676  30.2407

          k = 0.0000 0.4983 0.3468 (  2745 PWs)   bands (ev):

   -85.6983 -46.1863 -46.1367 -45.9862   8.4148  11.4867  12.6091  14.2223
    15.7542  15.9846  16.2034  18.0082  20.1591  30.3834  30.4037

          k = 0.1661 0.1661 0.0000 (  2729 PWs)   bands (ev):

   -85.7068 -46.1930 -46.0237 -46.0223   4.1957  13.6439  13.9103  14.2104
    15.8065  16.4651  17.6399  20.8508  21.1631  23.3706  32.4738

          k = 0.1661 0.1661 0.1156 (  2720 PWs)   bands (ev):

   -85.7068 -46.1934 -46.0237 -46.0223   4.4000  12.4951  14.2499  14.4810
    15.7025  16.4655  17.0809  21.0652  22.6069  23.6374  31.1469

          k = 0.1661 0.1661 0.2312 (  2731 PWs)   bands (ev):

   -85.7067 -46.1943 -46.0237 -46.0223   4.9597  10.8515  14.3542  14.9141
    15.4682  16.3568  16.5370  21.5760  23.8813  25.8961  29.4315

          k = 0.1661 0.1661 0.3468 (  2726 PWs)   bands (ev):

   -85.7067 -46.1951 -46.0236 -46.0222   5.6052   9.5519  14.4656  15.2645
    15.2696  15.9378  16.5086  22.0377  24.4133  28.3518  28.6285

          k = 0.1661 0.3322 0.0000 (  2719 PWs)   bands (ev):

   -85.7006 -46.1868 -46.0847 -46.0176   5.6623  13.5929  13.6325  14.3173
    15.7251  16.0544  18.2171  19.1671  21.7517  23.8966  28.1685

          k = 0.1661 0.3322 0.1156 (  2726 PWs)   bands (ev):

   -85.7006 -46.1871 -46.0847 -46.0175   5.8473  13.0393  13.6728  14.5439
    15.6248  16.0735  17.9180  18.5417  23.3485  24.2814  26.8497

          k = 0.1661 0.3322 0.2312 (  2722 PWs)   bands (ev):

   -85.7005 -46.1880 -46.0846 -46.0175   6.3443  11.9088  13.8309  14.7664
    15.4632  16.1037  16.8006  19.0065  24.1467  25.0048  27.0206

          k = 0.1661 0.3322 0.3468 (  2726 PWs)   bands (ev):

   -85.7005 -46.1887 -46.0845 -46.0175   6.8891  10.9188  13.9726  14.8095
    15.5280  16.0857  16.1745  19.5144  23.7853  24.5089  29.8370

          k = 0.1661 0.4983 0.0000 (  2725 PWs)   bands (ev):

   -85.6956 -46.1818 -46.1340 -46.0132   8.0022  11.0148  13.3851  14.7268
    15.6432  15.8286  17.7648  21.3297  22.7063  24.3574  25.9687

          k = 0.1661 0.4983 0.1156 (  2723 PWs)   bands (ev):

   -85.6956 -46.1821 -46.1339 -46.0132   8.1443  11.1140  13.2990  14.7441
    15.7045  15.7972  17.6171  19.8384  22.6978  24.7665  26.4957

          k = 0.1661 0.4983 0.2312 (  2733 PWs)   bands (ev):

   -85.6956 -46.1829 -46.1338 -46.0131   8.4976  11.3928  13.0736  14.6871
    15.6398  16.0141  17.0058  18.6139  21.2149  25.6367  28.4467

          k = 0.1661 0.4983 0.3468 (  2739 PWs)   bands (ev):

   -85.6956 -46.1836 -46.1337 -46.0131   8.8246  11.7720  12.7378  14.4889
    15.6950  16.2881  16.3279  18.0913  20.3634  25.9631  29.5579

          k = 0.3322 0.3322 0.0000 (  2727 PWs)   bands (ev):

   -85.6944 -46.1806 -46.0796 -46.0774   7.0732  13.8023  13.8997  14.5080
    15.0951  15.8545  17.9741  20.6451  21.1060  22.8551  28.5213

          k = 0.3322 0.3322 0.1156 (  2718 PWs)   bands (ev):

   -85.6944 -46.1810 -46.0796 -46.0774   7.2385  13.3615  14.2296  14.2524
    15.2624  15.8906  18.2815  19.2021  21.0783  24.7048  27.7724

          k = 0.3322 0.3322 0.2312 (  2725 PWs)   bands (ev):

   -85.6944 -46.1818 -46.0795 -46.0773   7.6745  12.6226  13.8977  14.7337
    15.4325  15.9605  17.5790  19.0745  20.9770  25.8171  26.4872

          k = 0.3322 0.3322 0.3468 (  2720 PWs)   bands (ev):

   -85.6944 -46.1825 -46.0794 -46.0773   8.1327  11.9366  13.6895  15.4206
    15.5065  16.0088  16.4009  19.9321  20.8736  24.2602  25.9986

          k = 0.3322 0.4983 0.0000 (  2715 PWs)   bands (ev):

   -85.6895 -46.1757 -46.1272 -46.0736   9.2761  12.0637  13.9004  14.7560
    15.0048  15.5879  17.6207  21.8778  22.4742  24.0645  25.5254

          k = 0.3322 0.4983 0.1156 (  2721 PWs)   bands (ev):

   -85.6895 -46.1761 -46.1272 -46.0735   9.3973  12.1382  13.5259  14.8622
    15.3348  15.7016  17.6630  20.9870  21.7804  24.1183  24.4934

          k = 0.3322 0.4983 0.2312 (  2724 PWs)   bands (ev):

   -85.6895 -46.1768 -46.1271 -46.0735   9.6977  12.2824  13.0480  15.0260
    15.6693  16.2555  17.6313  19.1844  21.4079  22.5573  24.7437

          k = 0.3322 0.4983 0.3468 (  2723 PWs)   bands (ev):

   -85.6894 -46.1775 -46.1270 -46.0734   9.9778  12.3633  12.7545  15.5239
    15.8077  16.6442  17.1977  18.2977  20.8645  21.8931  24.9679

          k = 0.4983 0.4983 0.0000 (  2707 PWs)   bands (ev):

   -85.6846 -46.1709 -46.1220 -46.1215  11.0255  13.1018  14.1789  14.3439
    14.5258  15.3764  17.5147  20.2386  21.6719  23.1435  26.9039

          k = 0.4983 0.4983 0.1156 (  2715 PWs)   bands (ev):

   -85.6846 -46.1712 -46.1219 -46.1215  11.1205  12.9846  13.4459  14.4566
    15.4877  15.7975  17.5591  19.8776  21.3660  22.6569  25.4820

          k = 0.4983 0.4983 0.2312 (  2721 PWs)   bands (ev):

   -85.6846 -46.1720 -46.1219 -46.1214  11.3406  12.7460  12.8405  15.0425
    16.5967  16.6041  17.8575  19.0608  20.2433  21.9329  23.4501

          k = 0.4983 0.4983 0.3468 (  2735 PWs)   bands (ev):

   -85.6845 -46.1726 -46.1218 -46.1214  11.5138  12.5312  12.6178  15.9193
    17.0605  17.1955  18.3849  18.9383  18.9500  21.3554  21.4713

     the Fermi energy is    18.1505 ev

!    total energy              =    -344.06831510 Ry
     estimated scf accuracy    <       0.00000073 Ry
     smearing contrib. (-TS)   =      -0.00014990 Ry
     internal energy E=F+TS    =    -344.06816519 Ry

     The total energy is F=E-TS. E is the sum of the following terms:
     one-electron contribution =    -220.82243410 Ry
     hartree contribution      =     125.10061027 Ry
     xc contribution           =     -46.28983415 Ry
     ewald contribution        =    -202.05650721 Ry

     convergence has been achieved in   4 iterations

     Forces acting on atoms (cartesian axes, Ry/au):

     atom    1 type  1   force =     0.00000000    0.00000000    0.00000000
     atom    2 type  2   force =     0.00000000    0.00000000    0.00000000

     Total force =     0.000000     Total SCF correction =     0.000000


     Computing stress (Cartesian axis) and pressure

          total   stress  (Ry/bohr**3)                   (kbar)     P=      187.06
   0.00176332   0.00000000   0.00000000          259.39        0.00        0.00
   0.00000000   0.00176332   0.00000000            0.00      259.39        0.00
   0.00000000   0.00000000   0.00028816            0.00        0.00       42.39

     Energy error            =      7.4E-04 Ry
     Gradient error          =      0.0E+00 Ry/Bohr
     Cell gradient error     =      4.2E+01 kbar

     number of scf cycles    =   2
     number of bfgs steps    =   1

     enthalpy           old  =    -344.0675780429 Ry
     enthalpy           new  =    -344.0683150951 Ry

     CASE: enthalpy          _new < enthalpy          _old

     new trust radius        =       0.0367312874 bohr
     new conv_thr            =       0.0000000100 Ry

     new unit-cell volume =    143.97660 a.u.^3 (    21.33513 Ang^3 )
     density =      6.75411 g/cm^3

CELL_PARAMETERS (alat=  5.37330365)
   0.860000000   0.000000000   0.000000000
   0.000000000   0.860000000   0.000000000
   0.000000000   0.000000000   1.254789482

ATOMIC_POSITIONS (crystal)
Si               0.0000000000        0.0000000000        0.0000000000
Ni               0.5000000000        0.5000000000        0.5000000000



     Writing config-only to output data dir ./tmp/SiNi-relax.save/ :
     XML data file
     NEW-OLD atomic charge density approx. for the potential
     New effective cutoffs (rho, wfc):  438.58  109.94

     total cpu time spent up to now is       25.5 secs

     Self-consistent Calculation

     iteration #  1     ecut=   110.00 Ry     beta= 0.70
     Davidson diagonalization with overlap
     ethr =  1.00E-06,  avg # of iterations =  5.8

     total cpu time spent up to now is       28.8 secs

     total energy              =    -344.06840092 Ry
     estimated scf accuracy    <       0.00014257 Ry

     iteration #  2     ecut=   110.00 Ry     beta= 0.70
     Davidson diagonalization with overlap
     ethr =  6.48E-07,  avg # of iterations =  2.5

     total cpu time spent up to now is       30.7 secs

     total energy              =    -344.06828542 Ry
     estimated scf accuracy    <       0.00156237 Ry

     iteration #  3     ecut=   110.00 Ry     beta= 0.70
     Davidson diagonalization with overlap
     ethr =  6.48E-07,  avg # of iterations =  2.1

     total cpu time spent up to now is       32.5 secs

     total energy              =    -344.06848267 Ry
     estimated scf accuracy    <       0.00000263 Ry

     iteration #  4     ecut=   110.00 Ry     beta= 0.70
     Davidson diagonalization with overlap
     ethr =  1.20E-08,  avg # of iterations =  2.5

     total cpu time spent up to now is       34.5 secs

     total energy              =    -344.06848324 Ry
     estimated scf accuracy    <       0.00000047 Ry

     iteration #  5     ecut=   110.00 Ry     beta= 0.70
     Davidson diagonalization with overlap
     ethr =  2.11E-09,  avg # of iterations =  1.4

     total cpu time spent up to now is       36.1 secs

     total energy              =    -344.06848327 Ry
     estimated scf accuracy    <       0.00000004 Ry

     iteration #  6     ecut=   110.00 Ry     beta= 0.70
     Davidson diagonalization with overlap
     ethr =  1.64E-10,  avg # of iterations =  2.0

     total cpu time spent up to now is       37.9 secs

     End of self-consistent calculation

          k = 0.0000 0.0000 0.0000 (  2725 PWs)   bands (ev):

   -85.9713 -46.4533 -46.2572 -46.2572   2.9905  12.8423  13.7743  13.8892
    15.8799  15.8799  16.6769  20.2635  25.5521  25.5521  25.6628

          k = 0.0000 0.0000 0.1138 (  2738 PWs)   bands (ev):

   -85.9713 -46.4536 -46.2572 -46.2572   3.1968  11.5676  13.7977  14.3770
    15.8423  15.8423  16.6783  21.4271  25.5589  25.8200  25.8200

          k = 0.0000 0.0000 0.2277 (  2734 PWs)   bands (ev):

   -85.9713 -46.4545 -46.2572 -46.2572   3.7655   9.7065  13.8511  14.6839
    15.7602  15.7602  16.6814  24.0613  25.3280  26.5383  26.5383

          k = 0.0000 0.0000 0.3415 (  2718 PWs)   bands (ev):

   -85.9713 -46.4551 -46.2572 -46.2572   4.4316   8.3096  13.8949  14.8072
    15.6968  15.6968  16.6838  25.1456  26.8139  27.3516  27.3516

          k = 0.0000 0.1661 0.0000 (  2739 PWs)   bands (ev):

   -85.9686 -46.4505 -46.2848 -46.2550   3.4934  13.1406  13.6120  13.8565
    15.9218  16.4685  16.4878  20.3935  21.0577  26.0661  28.5513

          k = 0.0000 0.1661 0.1138 (  2729 PWs)   bands (ev):

   -85.9686 -46.4509 -46.2848 -46.2549   3.6939  11.8903  13.8904  14.1856
    15.8867  16.1580  16.4716  21.2346  21.7162  26.3136  28.4417

          k = 0.0000 0.1661 0.2277 (  2721 PWs)   bands (ev):

   -85.9685 -46.4516 -46.2848 -46.2549   4.2437  10.1453  13.9715  14.5755
    15.6896  15.8103  16.4778  21.6708  24.4817  26.9685  28.1200

          k = 0.0000 0.1661 0.3415 (  2721 PWs)   bands (ev):

   -85.9685 -46.4523 -46.2848 -46.2549   4.8780   8.8196  14.0404  14.8644
    15.3140  15.7511  16.4825  22.0659  27.0755  27.6803  27.6857

          k = 0.0000 0.3322 0.0000 (  2723 PWs)   bands (ev):

   -85.9624 -46.4443 -46.3467 -46.2499   4.9755  13.1774  13.2083  13.8115
    16.0170  16.0381  17.7860  17.9849  20.8306  27.3527  27.5017

          k = 0.0000 0.3322 0.1138 (  2724 PWs)   bands (ev):

   -85.9623 -46.4446 -46.3467 -46.2499   5.1574  12.5195  13.2843  14.0508
    15.9855  16.0452  16.8816  18.0613  22.5075  26.0102  27.6937

          k = 0.0000 0.3322 0.2277 (  2724 PWs)   bands (ev):

   -85.9623 -46.4453 -46.3466 -46.2498   5.6465  11.2959  13.4826  14.2411
    15.8281  15.9227  16.0543  18.4760  24.0687  25.7059  28.1778

          k = 0.0000 0.3322 0.3415 (  2735 PWs)   bands (ev):

   -85.9623 -46.4459 -46.3465 -46.2498   6.1829  10.2621  13.6993  14.2909
    15.2984  15.8743  16.0608  18.9010  23.0469  28.3401  28.6476

          k = 0.0000 0.4983 0.0000 (  2720 PWs)   bands (ev):

   -85.9574 -46.4393 -46.3960 -46.2458   7.3518  10.4325  12.9059  14.1796
    15.7228  16.0943  17.4922  20.1436  21.6179  23.5684  27.1724

          k = 0.0000 0.4983 0.1138 (  2720 PWs)   bands (ev):

   -85.9574 -46.4395 -46.3960 -46.2458   7.4930  10.5246  12.8999  14.1589
    15.7277  16.0703  17.1362  18.9127  21.6272  24.4407  28.7961

          k = 0.0000 0.4983 0.2277 (  2743 PWs)   bands (ev):

   -85.9573 -46.4402 -46.3959 -46.2457   7.8427  10.8018  12.7959  14.0757
    15.7387  16.0170  16.1093  18.0506  20.4802  27.1769  29.9568

          k = 0.0000 0.4983 0.3415 (  2745 PWs)   bands (ev):

   -85.9573 -46.4407 -46.3958 -46.2457   8.1636  11.2403  12.3783  13.9895
    15.4494  15.7478  15.9748  17.6046  19.8697  29.8836  30.0892

          k = 0.1661 0.1661 0.0000 (  2729 PWs)   bands (ev):

   -85.9658 -46.4478 -46.2831 -46.2817   3.9913  13.4009  13.5521  13.9897
    15.5671  16.2252  17.2773  20.5663  20.5864  23.0966  32.2125

          k = 0.1661 0.1661 0.1138 (  2720 PWs)   bands (ev):

   -85.9658 -46.4481 -46.2831 -46.2817   4.1862  12.1844  14.0265  14.1979
    15.4696  16.2242  16.7527  20.7691  22.0202  23.3184  30.8090

          k = 0.1661 0.1661 0.2277 (  2731 PWs)   bands (ev):

   -85.9658 -46.4488 -46.2831 -46.2817   4.7174  10.5649  14.1224  14.6366
    15.2501  16.0817  16.2836  21.2517  23.5589  25.2050  29.1320

          k = 0.1661 0.1661 0.3415 (  2726 PWs)   bands (ev):

   -85.9658 -46.4494 -46.2830 -46.2817   5.3212   9.3135  14.2227  14.9729
    15.0617  15.6876  16.2653  21.6852  24.0610  28.0903  28.2083

          k = 0.1661 0.3322 0.0000 (  2719 PWs)   bands (ev):

   -85.9596 -46.4416 -46.3440 -46.2770   5.4578  13.3332  13.4052  14.0840
    15.4802  15.8195  17.9024  18.7434  21.1969  23.5992  27.6924

          k = 0.1661 0.3322 0.1138 (  2726 PWs)   bands (ev):

   -85.9596 -46.4419 -46.3439 -46.2770   5.6340  12.7542  13.4815  14.2970
    15.3832  15.8371  17.5539  18.1951  22.8546  23.8787  26.4279

          k = 0.1661 0.3322 0.2277 (  2722 PWs)   bands (ev):

   -85.9596 -46.4426 -46.3439 -46.2770   6.1053  11.6428  13.6339  14.5145
    15.2189  15.8645  16.4855  18.6487  23.8297  24.6620  26.3424

          k = 0.1661 0.3322 0.3415 (  2726 PWs)   bands (ev):

   -85.9596 -46.4431 -46.3438 -46.2769   6.6156  10.6867  13.7710  14.5650
    15.2481  15.8315  15.9280  19.1245  23.5003  24.1685  29.3956

          k = 0.1661 0.4983 0.0000 (  2725 PWs)   bands (ev):

   -85.9547 -46.4366 -46.3931 -46.2727   7.8004  10.8236  13.1199  14.4856
    15.4044  15.5815  17.4675  20.8644  22.2277  23.8773  25.6252

          k = 0.1661 0.4983 0.1138 (  2723 PWs)   bands (ev):

   -85.9546 -46.4369 -46.3930 -46.2727   7.9353  10.9159  13.0464  14.4991
    15.4615  15.5508  17.3086  19.4169  22.2788  24.3199  26.0794

          k = 0.1661 0.4983 0.2277 (  2733 PWs)   bands (ev):

   -85.9546 -46.4375 -46.3929 -46.2726   8.2695  11.1768  12.8434  14.4417
    15.3888  15.7610  16.6907  18.2366  20.8701  25.3045  27.9424

          k = 0.1661 0.4983 0.3415 (  2739 PWs)   bands (ev):

   -85.9546 -46.4380 -46.3929 -46.2726   8.5771  11.5346  12.5217  14.2561
    15.4098  16.0296  16.0750  17.6951  20.0741  25.6323  29.2082

          k = 0.3322 0.3322 0.0000 (  2727 PWs)   bands (ev):

   -85.9535 -46.4355 -46.3389 -46.3367   6.8706  13.6074  13.6193  14.3139
    14.8571  15.6224  17.6689  20.1941  20.7879  22.2917  28.2301

          k = 0.3322 0.3322 0.1138 (  2718 PWs)   bands (ev):

   -85.9535 -46.4358 -46.3389 -46.3367   7.0280  13.1170  13.9972  14.0596
    15.0246  15.6565  17.9662  18.7872  20.7523  24.1229  27.3754

          k = 0.3322 0.3322 0.2277 (  2725 PWs)   bands (ev):

   -85.9535 -46.4364 -46.3388 -46.3367   7.4413  12.3848  13.7122  14.4907
    15.1908  15.7232  17.2246  18.7282  20.6410  25.4737  26.0667

          k = 0.3322 0.3322 0.3415 (  2720 PWs)   bands (ev):

   -85.9534 -46.4369 -46.3387 -46.3366   7.8711  11.7202  13.5089  15.1465
    15.2624  15.7694  16.1010  19.5367  20.5311  23.9852  25.6852

          k = 0.3322 0.4983 0.0000 (  2715 PWs)   bands (ev):

   -85.9486 -46.4306 -46.3863 -46.3329   9.0815  11.8775  13.6461  14.5317
    14.7622  15.3583  17.3306  21.5615  22.0091  23.6747  25.0853

          k = 0.3322 0.4983 0.1138 (  2721 PWs)   bands (ev):

   -85.9485 -46.4308 -46.3863 -46.3328   9.1965  11.9468  13.2958  14.6264
    15.0890  15.4608  17.3643  20.5599  21.4595  23.7158  24.1476

          k = 0.3322 0.4983 0.2277 (  2724 PWs)   bands (ev):

   -85.9485 -46.4315 -46.3862 -46.3328   9.4808  12.0815  12.8404  14.7844
    15.4297  15.9836  17.3068  18.8158  21.0886  22.1973  24.4189

          k = 0.3322 0.4983 0.3415 (  2723 PWs)   bands (ev):

   -85.9485 -46.4320 -46.3862 -46.3328   9.7441  12.1584  12.5610  15.2660
    15.5506  16.3484  16.9185  17.9253  20.5846  21.5420  24.6280

          k = 0.4983 0.4983 0.0000 (  2707 PWs)   bands (ev):

   -85.9437 -46.4258 -46.3812 -46.3807  10.8539  12.9082  13.9722  14.1010
    14.2880  15.1628  17.2426  19.8731  21.3617  22.7035  26.3597

          k = 0.4983 0.4983 0.1138 (  2715 PWs)   bands (ev):

   -85.9436 -46.4260 -46.3811 -46.3807  10.9433  12.7893  13.2463  14.2271
    15.2395  15.5578  17.2832  19.5136  21.0464  22.2514  25.0342

          k = 0.4983 0.4983 0.2277 (  2721 PWs)   bands (ev):

   -85.9436 -46.4266 -46.3811 -46.3807  11.1494  12.5569  12.6544  14.8018
    16.3186  16.3441  17.5554  18.7149  19.9227  21.5646  23.0762

          k = 0.4983 0.4983 0.3415 (  2735 PWs)   bands (ev):

   -85.9436 -46.4271 -46.3810 -46.3806  11.3108  12.3523  12.4340  15.6438
    16.8062  16.8752  18.0621  18.5720  18.6713  21.0659  21.1095

     the Fermi energy is    17.8002 ev

!    total energy              =    -344.06848328 Ry
     estimated scf accuracy    <          4.9E-09 Ry
     smearing contrib. (-TS)   =      -0.00025014 Ry
     internal energy E=F+TS    =    -344.06823313 Ry

     The total energy is F=E-TS. E is the sum of the following terms:
     one-electron contribution =    -223.39816494 Ry
     hartree contribution      =     126.16037536 Ry
     xc contribution           =     -46.26564177 Ry
     ewald contribution        =    -200.56480179 Ry

     convergence has been achieved in   6 iterations

     Forces acting on atoms (cartesian axes, Ry/au):

     atom    1 type  1   force =     0.00000000    0.00000000    0.00000000
     atom    2 type  2   force =     0.00000000    0.00000000    0.00000000

     Total force =     0.000000     Total SCF correction =     0.000000


     Computing stress (Cartesian axis) and pressure

          total   stress  (Ry/bohr**3)                   (kbar)     P=      145.33
   0.00152644   0.00000000   0.00000000          224.55        0.00        0.00
   0.00000000   0.00152644   0.00000000            0.00      224.55        0.00
   0.00000000   0.00000000  -0.00008898            0.00        0.00      -13.09

     Energy error            =      1.7E-04 Ry
     Gradient error          =      0.0E+00 Ry/Bohr
     Cell gradient error     =      1.3E+01 kbar

     number of scf cycles    =   3
     number of bfgs steps    =   2

     enthalpy           old  =    -344.0683150951 Ry
     enthalpy           new  =    -344.0684832766 Ry

     CASE: enthalpy          _new < enthalpy          _old

     new trust radius        =       0.0085998945 bohr
     new conv_thr            =       0.0000000100 Ry

     new unit-cell volume =    143.46065 a.u.^3 (    21.25868 Ang^3 )
     density =      6.77840 g/cm^3

CELL_PARAMETERS (alat=  5.37330365)
   0.860000000   0.000000000   0.000000000
   0.000000000   0.860000000   0.000000000
   0.000000000   0.000000000   1.250292843

ATOMIC_POSITIONS (crystal)
Si               0.0000000000        0.0000000000        0.0000000000
Ni               0.5000000000        0.5000000000        0.5000000000



     Writing config-only to output data dir ./tmp/SiNi-relax.save/ :
     XML data file
     NEW-OLD atomic charge density approx. for the potential
     New effective cutoffs (rho, wfc):  438.63  109.95

     total cpu time spent up to now is       39.2 secs

     Self-consistent Calculation

     iteration #  1     ecut=   110.00 Ry     beta= 0.70
     Davidson diagonalization with overlap
     ethr =  1.00E-06,  avg # of iterations =  3.4

     Threshold (ethr) on eigenvalues was too large:
     Diagonalizing with lowered threshold

     Davidson diagonalization with overlap
     ethr =  3.96E-08,  avg # of iterations =  2.0

     total cpu time spent up to now is       43.3 secs

     total energy              =    -344.06850157 Ry
     estimated scf accuracy    <       0.00001068 Ry

     iteration #  2     ecut=   110.00 Ry     beta= 0.70
     Davidson diagonalization with overlap
     ethr =  4.86E-08,  avg # of iterations =  2.4

     total cpu time spent up to now is       45.3 secs

     total energy              =    -344.06849326 Ry
     estimated scf accuracy    <       0.00011741 Ry

     iteration #  3     ecut=   110.00 Ry     beta= 0.70
     Davidson diagonalization with overlap
     ethr =  4.86E-08,  avg # of iterations =  2.1

     total cpu time spent up to now is       47.5 secs

     total energy              =    -344.06850797 Ry
     estimated scf accuracy    <       0.00000012 Ry

     iteration #  4     ecut=   110.00 Ry     beta= 0.70
     Davidson diagonalization with overlap
     ethr =  5.55E-10,  avg # of iterations =  2.9

     total cpu time spent up to now is       49.6 secs

     total energy              =    -344.06850801 Ry
     estimated scf accuracy    <       0.00000003 Ry

     iteration #  5     ecut=   110.00 Ry     beta= 0.70
     Davidson diagonalization with overlap
     ethr =  1.44E-10,  avg # of iterations =  1.4

     total cpu time spent up to now is       51.2 secs

     End of self-consistent calculation

          k = 0.0000 0.0000 0.0000 (  2725 PWs)   bands (ev):

   -85.9100 -46.3931 -46.1959 -46.1959   3.0381  12.9044  13.8288  13.9985
    15.9365  15.9365  16.7355  20.4003  25.6017  25.6017  25.7361

          k = 0.0000 0.0000 0.1143 (  2738 PWs)   bands (ev):

   -85.9100 -46.3935 -46.1959 -46.1959   3.2467  11.6442  13.8528  14.4620
    15.8979  15.8979  16.7369  21.5743  25.6302  25.8731  25.8731

          k = 0.0000 0.0000 0.2285 (  2734 PWs)   bands (ev):

   -85.9100 -46.3943 -46.1958 -46.1958   3.8223   9.7757  13.9077  14.7601
    15.8138  15.8138  16.7401  24.2229  25.3952  26.6018  26.6018

          k = 0.0000 0.0000 0.3428 (  2718 PWs)   bands (ev):

   -85.9100 -46.3950 -46.1958 -46.1958   4.4991   8.3656  13.9527  14.8816
    15.7487  15.7487  16.7427  25.2094  26.9720  27.4303  27.4303

          k = 0.0000 0.1661 0.0000 (  2739 PWs)   bands (ev):

   -85.9072 -46.3903 -46.2235 -46.1936   3.5411  13.2004  13.7024  13.9093
    15.9786  16.5262  16.5640  20.5291  21.1236  26.1175  28.6204

          k = 0.0000 0.1661 0.1143 (  2729 PWs)   bands (ev):

   -85.9072 -46.3907 -46.2235 -46.1936   3.7439  11.9651  13.9439  14.2567
    15.9425  16.2279  16.5293  21.3023  21.8623  26.3684  28.5105

          k = 0.0000 0.1661 0.2285 (  2721 PWs)   bands (ev):

   -85.9072 -46.3915 -46.2235 -46.1936   4.3005  10.2133  14.0271  14.6421
    15.7521  15.8641  16.5358  21.7450  24.6402  27.0331  28.1890

          k = 0.0000 0.1661 0.3428 (  2721 PWs)   bands (ev):

   -85.9072 -46.3922 -46.2234 -46.1936   4.9449   8.8754  14.0980  14.9332
    15.3694  15.8034  16.5406  22.1465  27.2041  27.7550  27.7583

          k = 0.0000 0.3322 0.0000 (  2723 PWs)   bands (ev):

   -85.9010 -46.3841 -46.2854 -46.1885   5.0234  13.2487  13.2514  13.8697
    16.0742  16.0941  17.8604  18.0818  20.9626  27.4646  27.5571

          k = 0.0000 0.3322 0.1143 (  2724 PWs)   bands (ev):

   -85.9010 -46.3844 -46.2854 -46.1885   5.2074  12.5881  13.3285  14.1111
    16.0417  16.1015  16.9664  18.1419  22.6449  26.1102  27.7520

          k = 0.0000 0.3322 0.2285 (  2724 PWs)   bands (ev):

   -85.9010 -46.3851 -46.2853 -46.1885   5.7027  11.3596  13.5295  14.3011
    15.9026  15.9772  16.1109  18.5609  24.1482  25.8585  28.2440

          k = 0.0000 0.3322 0.3428 (  2735 PWs)   bands (ev):

   -85.9010 -46.3857 -46.2852 -46.1885   6.2475  10.3170  13.7492  14.3491
    15.3681  15.9275  16.1175  18.9930  23.1128  28.4682  28.7226

          k = 0.0000 0.4983 0.0000 (  2720 PWs)   bands (ev):

   -85.8960 -46.3791 -46.3348 -46.1844   7.3994  10.4778  12.9687  14.2382
    15.7779  16.1518  17.5628  20.2513  21.7348  23.6810  27.3128

          k = 0.0000 0.4983 0.1143 (  2720 PWs)   bands (ev):

   -85.8960 -46.3794 -46.3348 -46.1844   7.5423  10.5715  12.9606  14.2179
    15.7829  16.1271  17.2117  19.0098  21.7255  24.5694  28.9472

          k = 0.0000 0.4983 0.2285 (  2743 PWs)   bands (ev):

   -85.8960 -46.3800 -46.3347 -46.1844   7.8967  10.8530  12.8526  14.1345
    15.7943  16.0722  16.1865  18.1409  20.5595  27.3155  30.0232

          k = 0.0000 0.4983 0.3428 (  2745 PWs)   bands (ev):

   -85.8960 -46.3806 -46.3346 -46.1844   8.2223  11.2978  12.4321  14.0440
    15.5206  15.8036  16.0287  17.6992  19.9374  30.0066  30.1579

          k = 0.1661 0.1661 0.0000 (  2729 PWs)   bands (ev):

   -85.9045 -46.3876 -46.2218 -46.2204   4.0391  13.4581  13.6359  14.0417
    15.6233  16.2818  17.3614  20.6328  20.7213  23.1604  32.2737

          k = 0.1661 0.1661 0.1143 (  2720 PWs)   bands (ev):

   -85.9045 -46.3879 -46.2218 -46.2204   4.2362  12.2571  14.0791  14.2641
    15.5243  16.2811  16.8291  20.8384  22.1592  23.3909  30.8881

          k = 0.1661 0.1661 0.2285 (  2731 PWs)   bands (ev):

   -85.9045 -46.3887 -46.2218 -46.2204   4.7740  10.6316  14.1770  14.7017
    15.3014  16.1464  16.3429  21.3275  23.6350  25.3654  29.2018

          k = 0.1661 0.1661 0.3428 (  2726 PWs)   bands (ev):

   -85.9044 -46.3893 -46.2217 -46.2203   5.3875   9.3689  14.2798  15.0425
    15.1094  15.7463  16.3227  21.7676  24.1433  28.1512  28.3181

          k = 0.1661 0.3322 0.0000 (  2719 PWs)   bands (ev):

   -85.8983 -46.3814 -46.2827 -46.2157   5.5056  13.4031  13.4492  14.1388
    15.5377  15.8750  17.9763  18.8418  21.3270  23.6683  27.8031

          k = 0.1661 0.3322 0.1143 (  2726 PWs)   bands (ev):

   -85.8983 -46.3817 -46.2827 -46.2157   5.6839  12.8209  13.5264  14.3549
    15.4400  15.8929  17.6391  18.2760  22.9744  23.9683  26.5259

          k = 0.1661 0.3322 0.2285 (  2722 PWs)   bands (ev):

   -85.8983 -46.3824 -46.2826 -46.2156   6.1611  11.7048  13.6801  14.5736
    15.2763  15.9209  16.5591  18.7326  23.9040  24.7418  26.5005

          k = 0.1661 0.3322 0.3428 (  2726 PWs)   bands (ev):

   -85.8983 -46.3830 -46.2825 -46.2156   6.6794  10.7408  13.8183  14.6224
    15.3138  15.8914  15.9857  19.2158  23.5668  24.2479  29.5088

          k = 0.1661 0.4983 0.0000 (  2725 PWs)   bands (ev):

   -85.8933 -46.3764 -46.3318 -46.2113   7.8476  10.8683  13.1817  14.5424
    15.4608  15.6395  17.5376  20.9726  22.3400  23.9890  25.7055

          k = 0.1661 0.4983 0.1143 (  2723 PWs)   bands (ev):

   -85.8933 -46.3767 -46.3318 -46.2113   7.9842  10.9622  13.1053  14.5567
    15.5188  15.6088  17.3812  19.5151  22.3763  24.4260  26.1752

          k = 0.1661 0.4983 0.2285 (  2733 PWs)   bands (ev):

   -85.8933 -46.3773 -46.3317 -46.2113   8.3228  11.2273  12.8971  14.4993
    15.4479  15.8207  16.7645  18.3249  20.9504  25.3825  28.0625

          k = 0.1661 0.4983 0.3428 (  2739 PWs)   bands (ev):

   -85.8933 -46.3779 -46.3316 -46.2112   8.6350  11.5900  12.5721  14.3106
    15.4768  16.0905  16.1341  17.7879  20.1417  25.7095  29.2904

          k = 0.3322 0.3322 0.0000 (  2727 PWs)   bands (ev):

   -85.8922 -46.3753 -46.2776 -46.2754   6.9180  13.6532  13.6848  14.3595
    14.9129  15.6772  17.7405  20.2990  20.8625  22.4233  28.2979

          k = 0.3322 0.3322 0.1143 (  2718 PWs)   bands (ev):

   -85.8922 -46.3756 -46.2776 -46.2754   7.0772  13.1744  14.0514  14.1049
    15.0804  15.7117  18.0402  18.8840  20.8286  24.2590  27.4679

          k = 0.3322 0.3322 0.2285 (  2725 PWs)   bands (ev):

   -85.8921 -46.3762 -46.2775 -46.2754   7.4958  12.4403  13.7557  14.5477
    15.2476  15.7791  17.3074  18.8094  20.7195  25.5536  26.1669

          k = 0.3322 0.3322 0.3428 (  2720 PWs)   bands (ev):

   -85.8921 -46.3768 -46.2774 -46.2753   7.9322  11.7706  13.5513  15.2108
    15.3197  15.8259  16.1711  19.6293  20.6109  24.0493  25.7586

          k = 0.3322 0.4983 0.0000 (  2715 PWs)   bands (ev):

   -85.8872 -46.3704 -46.3251 -46.2716   9.1271  11.9211  13.7055  14.5846
    14.8190  15.4124  17.3989  21.6356  22.1173  23.7679  25.1857

          k = 0.3322 0.4983 0.1143 (  2721 PWs)   bands (ev):

   -85.8872 -46.3706 -46.3251 -46.2716   9.2435  11.9916  13.3497  14.6817
    15.1468  15.5175  17.4346  20.6594  21.5345  23.8105  24.2279

          k = 0.3322 0.4983 0.2285 (  2724 PWs)   bands (ev):

   -85.8872 -46.3713 -46.3250 -46.2715   9.5316  12.1285  12.8890  14.8411
    15.4860  16.0476  17.3831  18.9017  21.1629  22.2813  24.4948

          k = 0.3322 0.4983 0.3428 (  2723 PWs)   bands (ev):

   -85.8872 -46.3718 -46.3249 -46.2715   9.7987  12.2064  12.6063  15.3266
    15.6107  16.4180  16.9839  18.0123  20.6499  21.6238  24.7072

          k = 0.4983 0.4983 0.0000 (  2707 PWs)   bands (ev):

   -85.8823 -46.3655 -46.3199 -46.3195  10.8941  12.9536  14.0206  14.1578
    14.3437  15.2132  17.3066  19.9589  21.4344  22.8056  26.4864

          k = 0.4983 0.4983 0.1143 (  2715 PWs)   bands (ev):

   -85.8823 -46.3658 -46.3199 -46.3194  10.9849  12.8351  13.2931  14.2809
    15.2977  15.6141  17.3481  19.5987  21.1212  22.3459  25.1383

          k = 0.4983 0.4983 0.2285 (  2721 PWs)   bands (ev):

   -85.8823 -46.3664 -46.3198 -46.3194  11.1942  12.6012  12.6980  14.8582
    16.3840  16.4052  17.6264  18.7954  19.9974  21.6506  23.1631

          k = 0.4983 0.4983 0.3428 (  2735 PWs)   bands (ev):

   -85.8823 -46.3669 -46.3198 -46.3193  11.3583  12.3942  12.4771  15.7084
    16.8660  16.9505  18.1371  18.6609  18.7334  21.1328  21.1938

     the Fermi energy is    17.8820 ev

!    total energy              =    -344.06850801 Ry
     estimated scf accuracy    <          2.5E-09 Ry
     smearing contrib. (-TS)   =      -0.00023119 Ry
     internal energy E=F+TS    =    -344.06827682 Ry

     The total energy is F=E-TS. E is the sum of the following terms:
     one-electron contribution =    -222.78849462 Ry
     hartree contribution      =     125.90707509 Ry
     xc contribution           =     -46.27089647 Ry
     ewald contribution        =    -200.91596082 Ry

     convergence has been achieved in   5 iterations

     Forces acting on atoms (cartesian axes, Ry/au):

     atom    1 type  1   force =     0.00000000    0.00000000    0.00000000
     atom    2 type  2   force =     0.00000000    0.00000000    0.00000000

     Total force =     0.000000     Total SCF correction =     0.000000


     Computing stress (Cartesian axis) and pressure

          total   stress  (Ry/bohr**3)                   (kbar)     P=      153.26
   0.00156948   0.00000000   0.00000000          230.88        0.00        0.00
   0.00000000   0.00156948   0.00000000            0.00      230.88        0.00
   0.00000000   0.00000000  -0.00001347            0.00        0.00       -1.98

     Energy error            =      2.5E-05 Ry
     Gradient error          =      0.0E+00 Ry/Bohr
     Cell gradient error     =      2.0E+00 kbar

     number of scf cycles    =   4
     number of bfgs steps    =   3

     enthalpy           old  =    -344.0684832766 Ry
     enthalpy           new  =    -344.0685080082 Ry

     CASE: enthalpy          _new < enthalpy          _old

     new trust radius        =       0.0015364888 bohr
     new conv_thr            =       0.0000000100 Ry

     new unit-cell volume =    143.36863 a.u.^3 (    21.24504 Ang^3 )
     density =      6.78275 g/cm^3

CELL_PARAMETERS (alat=  5.37330365)
   0.860000000   0.000000000   0.000000000
   0.000000000   0.860000000   0.000000000
   0.000000000   0.000000000   1.249490898

ATOMIC_POSITIONS (crystal)
Si               0.0000000000        0.0000000000        0.0000000000
Ni               0.5000000000        0.5000000000        0.5000000000



     Writing config-only to output data dir ./tmp/SiNi-relax.save/ :
     XML data file
     NEW-OLD atomic charge density approx. for the potential
     New effective cutoffs (rho, wfc):  438.64  109.95

     total cpu time spent up to now is       52.6 secs

     Self-consistent Calculation

     iteration #  1     ecut=   110.00 Ry     beta= 0.70
     Davidson diagonalization with overlap
     ethr =  1.00E-06,  avg # of iterations =  2.0

     Threshold (ethr) on eigenvalues was too large:
     Diagonalizing with lowered threshold

     Davidson diagonalization with overlap
     ethr =  3.42E-10,  avg # of iterations =  4.2

     total cpu time spent up to now is       56.9 secs

     total energy              =    -344.06850824 Ry
     estimated scf accuracy    <       0.00000018 Ry

     iteration #  2     ecut=   110.00 Ry     beta= 0.70
     Davidson diagonalization with overlap
     ethr =  8.20E-10,  avg # of iterations =  2.4

     total cpu time spent up to now is       58.8 secs

     total energy              =    -344.06850811 Ry
     estimated scf accuracy    <       0.00000171 Ry

     iteration #  3     ecut=   110.00 Ry     beta= 0.70
     Davidson diagonalization with overlap
     ethr =  8.20E-10,  avg # of iterations =  2.1

     total cpu time spent up to now is       60.6 secs

     End of self-consistent calculation

          k = 0.0000 0.0000 0.0000 (  2725 PWs)   bands (ev):

   -85.8990 -46.3823 -46.1848 -46.1848   3.0466  12.9156  13.8386  14.0181
    15.9467  15.9467  16.7461  20.4248  25.6105  25.6105  25.7492

          k = 0.0000 0.0000 0.1143 (  2738 PWs)   bands (ev):

   -85.8990 -46.3827 -46.1848 -46.1848   3.2556  11.6579  13.8628  14.4773
    15.9079  15.9079  16.7475  21.6006  25.6430  25.8826  25.8826

          k = 0.0000 0.0000 0.2287 (  2734 PWs)   bands (ev):

   -85.8990 -46.3835 -46.1848 -46.1848   3.8325   9.7881  13.9180  14.7738
    15.8234  15.8234  16.7508  24.2519  25.4071  26.6131  26.6131

          k = 0.0000 0.0000 0.3430 (  2718 PWs)   bands (ev):

   -85.8989 -46.3842 -46.1848 -46.1848   4.5112   8.3757  13.9632  14.8950
    15.7581  15.7581  16.7534  25.2207  27.0002  27.4444  27.4444

          k = 0.0000 0.1661 0.0000 (  2739 PWs)   bands (ev):

   -85.8962 -46.3795 -46.2125 -46.1826   3.5496  13.2111  13.7186  13.9189
    15.9889  16.5367  16.5777  20.5533  21.1354  26.1266  28.6327

          k = 0.0000 0.1661 0.1143 (  2729 PWs)   bands (ev):

   -85.8962 -46.3799 -46.2125 -46.1825   3.7528  11.9785  13.9536  14.2695
    15.9526  16.2405  16.5398  21.3144  21.8885  26.3782  28.5227

          k = 0.0000 0.1661 0.2287 (  2721 PWs)   bands (ev):

   -85.8962 -46.3807 -46.2124 -46.1825   4.3106  10.2255  14.0371  14.6541
    15.7634  15.8738  16.5463  21.7582  24.6686  27.0446  28.2013

          k = 0.0000 0.1661 0.3430 (  2721 PWs)   bands (ev):

   -85.8962 -46.3813 -46.2124 -46.1825   4.9568   8.8854  14.1085  14.9456
    15.3795  15.8129  16.5512  22.1608  27.2267  27.7677  27.7722

          k = 0.0000 0.3322 0.0000 (  2723 PWs)   bands (ev):

   -85.8900 -46.3732 -46.2744 -46.1775   5.0319  13.2592  13.2615  13.8802
    16.0845  16.1043  17.8737  18.0992  20.9862  27.4847  27.5669

          k = 0.0000 0.3322 0.1143 (  2724 PWs)   bands (ev):

   -85.8900 -46.3736 -46.2743 -46.1774   5.2163  12.6004  13.3364  14.1220
    16.0519  16.1118  16.9816  18.1563  22.6695  26.1282  27.7624

          k = 0.0000 0.3322 0.2287 (  2724 PWs)   bands (ev):

   -85.8900 -46.3743 -46.2743 -46.1774   5.7127  11.3710  13.5379  14.3120
    15.9160  15.9871  16.1212  18.5761  24.1624  25.8858  28.2558

          k = 0.0000 0.3322 0.3430 (  2735 PWs)   bands (ev):

   -85.8900 -46.3749 -46.2742 -46.1774   6.2590  10.3269  13.7582  14.3596
    15.3807  15.9372  16.1278  19.0095  23.1246  28.4910  28.7359

          k = 0.0000 0.4983 0.0000 (  2720 PWs)   bands (ev):

   -85.8850 -46.3682 -46.3238 -46.1734   7.4078  10.4858  12.9800  14.2488
    15.7879  16.1622  17.5755  20.2706  21.7558  23.7011  27.3380

          k = 0.0000 0.4983 0.1143 (  2720 PWs)   bands (ev):

   -85.8850 -46.3685 -46.3237 -46.1734   7.5511  10.5799  12.9716  14.2286
    15.7929  16.1374  17.2253  19.0272  21.7431  24.5924  28.9744

          k = 0.0000 0.4983 0.2287 (  2743 PWs)   bands (ev):

   -85.8850 -46.3692 -46.3236 -46.1733   7.9063  10.8622  12.8628  14.1452
    15.8044  16.0821  16.2004  18.1571  20.5737  27.3403  30.0350

          k = 0.0000 0.4983 0.3430 (  2745 PWs)   bands (ev):

   -85.8850 -46.3698 -46.3235 -46.1733   8.2327  11.3081  12.4418  14.0539
    15.5334  15.8138  16.0385  17.7162  19.9495  30.0285  30.1701

          k = 0.1661 0.1661 0.0000 (  2729 PWs)   bands (ev):

   -85.8935 -46.3767 -46.2108 -46.2094   4.0477  13.4684  13.6509  14.0511
    15.6335  16.2921  17.3765  20.6447  20.7455  23.1718  32.2846

          k = 0.1661 0.1661 0.1143 (  2720 PWs)   bands (ev):

   -85.8935 -46.3771 -46.2107 -46.2093   4.2451  12.2702  14.0886  14.2761
    15.5342  16.2914  16.8429  20.8507  22.1840  23.4039  30.9022

          k = 0.1661 0.1661 0.2287 (  2731 PWs)   bands (ev):

   -85.8934 -46.3779 -46.2107 -46.2093   4.7841  10.6436  14.1869  14.7135
    15.3107  16.1581  16.3536  21.3411  23.6485  25.3942  29.2144

          k = 0.1661 0.1661 0.3430 (  2726 PWs)   bands (ev):

   -85.8934 -46.3785 -46.2107 -46.2093   5.3993   9.3789  14.2901  15.0551
    15.1181  15.7569  16.3331  21.7823  24.1579  28.1622  28.3370

          k = 0.1661 0.3322 0.0000 (  2719 PWs)   bands (ev):

   -85.8873 -46.3705 -46.2716 -46.2046   5.5141  13.4157  13.4571  14.1487
    15.5482  15.8850  17.9895  18.8595  21.3503  23.6806  27.8229

          k = 0.1661 0.3322 0.1143 (  2726 PWs)   bands (ev):

   -85.8873 -46.3709 -46.2716 -46.2046   5.6927  12.8329  13.5344  14.3654
    15.4502  15.9030  17.6544  18.2905  22.9956  23.9846  26.5435

          k = 0.1661 0.3322 0.2287 (  2722 PWs)   bands (ev):

   -85.8873 -46.3716 -46.2715 -46.2046   6.1711  11.7159  13.6884  14.5843
    15.2867  15.9311  16.5723  18.7476  23.9172  24.7561  26.5289

          k = 0.1661 0.3322 0.3430 (  2726 PWs)   bands (ev):

   -85.8872 -46.3722 -46.2715 -46.2045   6.6908  10.7505  13.8268  14.6328
    15.3256  15.9022  15.9962  19.2321  23.5788  24.2620  29.5284

          k = 0.1661 0.4983 0.0000 (  2725 PWs)   bands (ev):

   -85.8823 -46.3655 -46.3208 -46.2003   7.8560  10.8763  13.1929  14.5526
    15.4710  15.6500  17.5502  20.9920  22.3601  24.0090  25.7199

          k = 0.1661 0.4983 0.1143 (  2723 PWs)   bands (ev):

   -85.8823 -46.3658 -46.3207 -46.2003   7.9929  10.9705  13.1160  14.5671
    15.5291  15.6193  17.3943  19.5327  22.3938  24.4449  26.1924

          k = 0.1661 0.4983 0.2287 (  2733 PWs)   bands (ev):

   -85.8823 -46.3665 -46.3206 -46.2002   8.3323  11.2363  12.9068  14.5098
    15.4585  15.8315  16.7778  18.3407  20.9648  25.3964  28.0838

          k = 0.1661 0.4983 0.3430 (  2739 PWs)   bands (ev):

   -85.8823 -46.3671 -46.3206 -46.2002   8.6453  11.5999  12.5812  14.3205
    15.4889  16.1015  16.1448  17.8045  20.1539  25.7232  29.3050

          k = 0.3322 0.3322 0.0000 (  2727 PWs)   bands (ev):

   -85.8811 -46.3644 -46.2666 -46.2644   6.9264  13.6615  13.6966  14.3677
    14.9230  15.6871  17.7533  20.3178  20.8758  22.4469  28.3100

          k = 0.3322 0.3322 0.1143 (  2718 PWs)   bands (ev):

   -85.8811 -46.3647 -46.2665 -46.2644   7.0860  13.1848  14.0612  14.1130
    15.0905  15.7217  18.0534  18.9014  20.8423  24.2833  27.4845

          k = 0.3322 0.3322 0.2287 (  2725 PWs)   bands (ev):

   -85.8811 -46.3654 -46.2665 -46.2643   7.5055  12.4504  13.7636  14.5579
    15.2579  15.7893  17.3223  18.8239  20.7335  25.5680  26.1847

          k = 0.3322 0.3322 0.3430 (  2720 PWs)   bands (ev):

   -85.8811 -46.3660 -46.2664 -46.2643   7.9431  11.7798  13.5589  15.2223
    15.3301  15.8361  16.1838  19.6459  20.6252  24.0608  25.7718

          k = 0.3322 0.4983 0.0000 (  2715 PWs)   bands (ev):

   -85.8762 -46.3595 -46.3140 -46.2605   9.1352  11.9289  13.7162  14.5941
    14.8293  15.4222  17.4112  21.6488  22.1367  23.7844  25.2039

          k = 0.3322 0.4983 0.1143 (  2721 PWs)   bands (ev):

   -85.8762 -46.3598 -46.3140 -46.2605   9.2519  11.9996  13.3594  14.6917
    15.1572  15.5277  17.4472  20.6772  21.5479  23.8274  24.2422

          k = 0.3322 0.4983 0.2287 (  2724 PWs)   bands (ev):

   -85.8762 -46.3605 -46.3139 -46.2605   9.5406  12.1369  12.8978  14.8513
    15.4962  16.0592  17.3968  18.9172  21.1762  22.2963  24.5083

          k = 0.3322 0.4983 0.3430 (  2723 PWs)   bands (ev):

   -85.8762 -46.3610 -46.3139 -46.2604   9.8085  12.2150  12.6145  15.3376
    15.6216  16.4305  16.9957  18.0279  20.6617  21.6384  24.7213

          k = 0.4983 0.4983 0.0000 (  2707 PWs)   bands (ev):

   -85.8713 -46.3547 -46.3088 -46.3084  10.9013  12.9618  14.0292  14.1681
    14.3538  15.2222  17.3182  19.9742  21.4474  22.8239  26.5091

          k = 0.4983 0.4983 0.1143 (  2715 PWs)   bands (ev):

   -85.8713 -46.3550 -46.3088 -46.3084  10.9923  12.8433  13.3015  14.2906
    15.3081  15.6242  17.3598  19.6140  21.1346  22.3628  25.1570

          k = 0.4983 0.4983 0.2287 (  2721 PWs)   bands (ev):

   -85.8713 -46.3556 -46.3088 -46.3083  11.2022  12.6093  12.7058  14.8684
    16.3958  16.4162  17.6392  18.8098  20.0108  21.6660  23.1787

          k = 0.4983 0.4983 0.3430 (  2735 PWs)   bands (ev):

   -85.8713 -46.3561 -46.3087 -46.3083  11.3668  12.4017  12.4849  15.7200
    16.8768  16.9641  18.1505  18.6768  18.7446  21.1449  21.2088

     the Fermi energy is    17.8967 ev

!    total energy              =    -344.06850833 Ry
     estimated scf accuracy    <          6.2E-09 Ry
     smearing contrib. (-TS)   =      -0.00022775 Ry
     internal energy E=F+TS    =    -344.06828058 Ry

     The total energy is F=E-TS. E is the sum of the following terms:
     one-electron contribution =    -222.67942054 Ry
     hartree contribution      =     125.86161968 Ry
     xc contribution           =     -46.27184223 Ry
     ewald contribution        =    -200.97863748 Ry

     convergence has been achieved in   3 iterations

     Forces acting on atoms (cartesian axes, Ry/au):

     atom    1 type  1   force =     0.00000000    0.00000000    0.00000000
     atom    2 type  2   force =     0.00000000    0.00000000    0.00000000

     Total force =     0.000000     Total SCF correction =     0.000000


     Computing stress (Cartesian axis) and pressure

          total   stress  (Ry/bohr**3)                   (kbar)     P=      154.99
   0.00157957   0.00000000   0.00000000          232.36        0.00        0.00
   0.00000000   0.00157957   0.00000000            0.00      232.36        0.00
   0.00000000   0.00000000   0.00000158            0.00        0.00        0.23

     Energy error            =      3.3E-07 Ry
     Gradient error          =      0.0E+00 Ry/Bohr
     Cell gradient error     =      2.3E-01 kbar

     bfgs converged in   5 scf cycles and   4 bfgs steps
     (criteria: energy <  1.0E-04 Ry, force <  1.0E-03 Ry/Bohr, cell <  5.0E-01 kbar)

     End of BFGS Geometry Optimization

     Final enthalpy           =    -344.0685083334 Ry

     File ./tmp/SiNi-relax.bfgs deleted, as requested
Begin final coordinates
     new unit-cell volume =    143.36863 a.u.^3 (    21.24504 Ang^3 )
     density =      6.78275 g/cm^3

CELL_PARAMETERS (alat=  5.37330365)
   0.860000000   0.000000000   0.000000000
   0.000000000   0.860000000   0.000000000
   0.000000000   0.000000000   1.249490898

ATOMIC_POSITIONS (crystal)
Si               0.0000000000        0.0000000000        0.0000000000
Ni               0.5000000000        0.5000000000        0.5000000000
End final coordinates



     Writing config-only to output data dir ./tmp/SiNi-relax.save/ :
     XML data file

     Final scf calculation at the relaxed structure.
     The G-vectors are recalculated for the final unit cell
     Results may differ from those at the preceding step.

     G-vector sticks info
     --------------------
     sticks:   dense  smooth     PW     G-vecs:    dense   smooth      PW
     Sum         749     749    221                22369    22369    3629

     Using Slab Decomposition



     bravais-lattice index     =            0
     lattice parameter (alat)  =       5.3733  a.u.
     unit-cell volume          =     143.3686 (a.u.)^3
     number of atoms/cell      =            2
     number of atomic types    =            2
     number of electrons       =        22.00
     number of Kohn-Sham states=           15
     kinetic-energy cutoff     =     110.0000  Ry
     charge density cutoff     =     440.0000  Ry
     scf convergence threshold =      1.0E-08
     mixing beta               =       0.7000
     number of iterations used =            8  plain     mixing
     press convergence thresh. =      5.0E-01
     Exchange-correlation= PBE
                           (   1   4   3   4   0   0   0)

     celldm(1)=   5.373304  celldm(2)=   0.000000  celldm(3)=   0.000000
     celldm(4)=   0.000000  celldm(5)=   0.000000  celldm(6)=   0.000000

     crystal axes: (cart. coord. in units of alat)
               a(1) = (   0.860000   0.000000   0.000000 )  
               a(2) = (   0.000000   0.860000   0.000000 )  
               a(3) = (   0.000000   0.000000   1.249491 )  

     reciprocal axes: (cart. coord. in units 2 pi/alat)
               b(1) = (  1.162791  0.000000  0.000000 )  
               b(2) = (  0.000000  1.162791  0.000000 )  
               b(3) = (  0.000000  0.000000  0.800326 )  


     PseudoPot. # 1 for Si read from file:
     ./PSEUDO/Si.upf
     MD5 check sum: 02fab3f35e82123ef5bf1cb05d5b1a5e
     Pseudo is Norm-conserving + core correction, Zval =  4.0
     Generated using ONCVPSP code by D. R. Hamann
     Using radial grid of 1510 points,  6 beta functions with: 
                l(1) =   0
                l(2) =   0
                l(3) =   1
                l(4) =   1
                l(5) =   2
                l(6) =   2

     PseudoPot. # 2 for Ni read from file:
     ./PSEUDO/Ni.upf
     MD5 check sum: 2b0a79d100e227970886d6963e34175b
     Pseudo is Norm-conserving + core correction, Zval = 18.0
     Generated using ONCVPSP code by D. R. Hamann
     Using radial grid of 1372 points,  6 beta functions with: 
                l(1) =   0
                l(2) =   0
                l(3) =   1
                l(4) =   1
                l(5) =   2
                l(6) =   2

     atomic species   valence    mass     pseudopotential
     Si                4.00    28.08550     Si( 1.00)
     Ni               18.00    58.69340     Ni( 1.00)

     16 Sym. Ops., with inversion, found



   Cartesian axes

     site n.     atom                  positions (alat units)
         1        Si     tau(   1) = (   0.0000000   0.0000000   0.0000000  )
         2        Ni     tau(   2) = (   0.4300000   0.4300000   0.6247454  )

     number of k points=    40  Methfessel-Paxton smearing, width (Ry)=  0.0400
                       cart. coord. in units 2pi/alat
        k(    1) = (   0.0000000   0.0000000   0.0000000), wk =   0.0058309
        k(    2) = (   0.0000000   0.0000000   0.1143323), wk =   0.0116618
        k(    3) = (   0.0000000   0.0000000   0.2286646), wk =   0.0116618
        k(    4) = (   0.0000000   0.0000000   0.3429968), wk =   0.0116618
        k(    5) = (   0.0000000   0.1661130   0.0000000), wk =   0.0233236
        k(    6) = (   0.0000000   0.1661130   0.1143323), wk =   0.0466472
        k(    7) = (   0.0000000   0.1661130   0.2286646), wk =   0.0466472
        k(    8) = (   0.0000000   0.1661130   0.3429968), wk =   0.0466472
        k(    9) = (   0.0000000   0.3322259   0.0000000), wk =   0.0233236
        k(   10) = (   0.0000000   0.3322259   0.1143323), wk =   0.0466472
        k(   11) = (   0.0000000   0.3322259   0.2286646), wk =   0.0466472
        k(   12) = (   0.0000000   0.3322259   0.3429968), wk =   0.0466472
        k(   13) = (   0.0000000   0.4983389   0.0000000), wk =   0.0233236
        k(   14) = (   0.0000000   0.4983389   0.1143323), wk =   0.0466472
        k(   15) = (   0.0000000   0.4983389   0.2286646), wk =   0.0466472
        k(   16) = (   0.0000000   0.4983389   0.3429968), wk =   0.0466472
        k(   17) = (   0.1661130   0.1661130   0.0000000), wk =   0.0233236
        k(   18) = (   0.1661130   0.1661130   0.1143323), wk =   0.0466472
        k(   19) = (   0.1661130   0.1661130   0.2286646), wk =   0.0466472
        k(   20) = (   0.1661130   0.1661130   0.3429968), wk =   0.0466472
        k(   21) = (   0.1661130   0.3322259   0.0000000), wk =   0.0466472
        k(   22) = (   0.1661130   0.3322259   0.1143323), wk =   0.0932945
        k(   23) = (   0.1661130   0.3322259   0.2286646), wk =   0.0932945
        k(   24) = (   0.1661130   0.3322259   0.3429968), wk =   0.0932945
        k(   25) = (   0.1661130   0.4983389   0.0000000), wk =   0.0466472
        k(   26) = (   0.1661130   0.4983389   0.1143323), wk =   0.0932945
        k(   27) = (   0.1661130   0.4983389   0.2286646), wk =   0.0932945
        k(   28) = (   0.1661130   0.4983389   0.3429968), wk =   0.0932945
        k(   29) = (   0.3322259   0.3322259   0.0000000), wk =   0.0233236
        k(   30) = (   0.3322259   0.3322259   0.1143323), wk =   0.0466472
        k(   31) = (   0.3322259   0.3322259   0.2286646), wk =   0.0466472
        k(   32) = (   0.3322259   0.3322259   0.3429968), wk =   0.0466472
        k(   33) = (   0.3322259   0.4983389   0.0000000), wk =   0.0466472
        k(   34) = (   0.3322259   0.4983389   0.1143323), wk =   0.0932945
        k(   35) = (   0.3322259   0.4983389   0.2286646), wk =   0.0932945
        k(   36) = (   0.3322259   0.4983389   0.3429968), wk =   0.0932945
        k(   37) = (   0.4983389   0.4983389   0.0000000), wk =   0.0233236
        k(   38) = (   0.4983389   0.4983389   0.1143323), wk =   0.0466472
        k(   39) = (   0.4983389   0.4983389   0.2286646), wk =   0.0466472
        k(   40) = (   0.4983389   0.4983389   0.3429968), wk =   0.0466472

     Dense  grid:    22369 G-vectors     FFT dimensions: (  32,  32,  45)

     Estimated max dynamical RAM per process >      50.57 MB

     Initial potential from superposition of free atoms

     starting charge      21.9992, renormalised to      22.0000
     Starting wfcs are   14 randomized atomic wfcs +    1 random wfcs

     total cpu time spent up to now is       62.7 secs

     Self-consistent Calculation

     iteration #  1     ecut=   110.00 Ry     beta= 0.70
     Davidson diagonalization with overlap
     c_bands:  1 eigenvalues not converged
     ethr =  1.00E-06,  avg # of iterations = 12.2

     total cpu time spent up to now is       67.8 secs

     total energy              =    -343.94767696 Ry
     estimated scf accuracy    <       0.19073235 Ry

     iteration #  2     ecut=   110.00 Ry     beta= 0.70
     Davidson diagonalization with overlap
     ethr =  8.67E-04,  avg # of iterations =  2.7

     total cpu time spent up to now is       70.0 secs

     total energy              =    -343.73135097 Ry
     estimated scf accuracy    <       2.70217427 Ry

     iteration #  3     ecut=   110.00 Ry     beta= 0.70
     Davidson diagonalization with overlap
     ethr =  8.67E-04,  avg # of iterations =  2.2

     total cpu time spent up to now is       72.0 secs

     total energy              =    -344.06754804 Ry
     estimated scf accuracy    <       0.00736659 Ry

     iteration #  4     ecut=   110.00 Ry     beta= 0.70
     Davidson diagonalization with overlap
     ethr =  3.35E-05,  avg # of iterations =  2.1

     total cpu time spent up to now is       73.6 secs

     total energy              =    -344.06844084 Ry
     estimated scf accuracy    <       0.00054266 Ry

     iteration #  5     ecut=   110.00 Ry     beta= 0.70
     Davidson diagonalization with overlap
     ethr =  2.47E-06,  avg # of iterations =  2.5

     total cpu time spent up to now is       75.4 secs

     total energy              =    -344.06850810 Ry
     estimated scf accuracy    <       0.00001318 Ry

     iteration #  6     ecut=   110.00 Ry     beta= 0.70
     Davidson diagonalization with overlap
     ethr =  5.99E-08,  avg # of iterations =  2.6

     total cpu time spent up to now is       77.2 secs

     total energy              =    -344.06851258 Ry
     estimated scf accuracy    <       0.00000312 Ry

     iteration #  7     ecut=   110.00 Ry     beta= 0.70
     Davidson diagonalization with overlap
     ethr =  1.42E-08,  avg # of iterations =  1.1

     total cpu time spent up to now is       78.8 secs

     total energy              =    -344.06851284 Ry
     estimated scf accuracy    <       0.00000010 Ry

     iteration #  8     ecut=   110.00 Ry     beta= 0.70
     Davidson diagonalization with overlap
     ethr =  4.44E-10,  avg # of iterations =  2.6

     total cpu time spent up to now is       80.5 secs

     End of self-consistent calculation

          k = 0.0000 0.0000 0.0000 (  2799 PWs)   bands (ev):

   -85.8996 -46.3828 -46.1855 -46.1855   3.0467  12.9153  13.8382  14.0182
    15.9463  15.9463  16.7455  20.4247  25.6106  25.6106  25.7492

          k = 0.0000 0.0000 0.1143 (  2795 PWs)   bands (ev):

   -85.8996 -46.3831 -46.1855 -46.1855   3.2557  11.6578  13.8624  14.4771
    15.9076  15.9076  16.7470  21.6005  25.6431  25.8827  25.8827

          k = 0.0000 0.0000 0.2287 (  2798 PWs)   bands (ev):

   -85.8996 -46.3840 -46.1854 -46.1854   3.8326   9.7881  13.9176  14.7735
    15.8231  15.8231  16.7502  24.2518  25.4073  26.6132  26.6132

          k = 0.0000 0.0000 0.3430 (  2782 PWs)   bands (ev):

   -85.8996 -46.3847 -46.1854 -46.1854   4.5113   8.3756  13.9628  14.8947
    15.7577  15.7577  16.7528  25.2208  27.0002  27.4444  27.4444

          k = 0.0000 0.1661 0.0000 (  2795 PWs)   bands (ev):

   -85.8969 -46.3800 -46.2131 -46.1832   3.5496  13.2109  13.7185  13.9185
    15.9885  16.5361  16.5775  20.5532  21.1355  26.1267  28.6328

          k = 0.0000 0.1661 0.1143 (  2791 PWs)   bands (ev):

   -85.8969 -46.3803 -46.2131 -46.1832   3.7528  11.9784  13.9532  14.2693
    15.9522  16.2402  16.5392  21.3144  21.8884  26.3783  28.5228

          k = 0.0000 0.1661 0.2287 (  2782 PWs)   bands (ev):

   -85.8969 -46.3812 -46.2131 -46.1832   4.3107  10.2255  14.0367  14.6538
    15.7631  15.8734  16.5458  21.7582  24.6685  27.0447  28.2013

          k = 0.0000 0.1661 0.3430 (  2787 PWs)   bands (ev):

   -85.8968 -46.3818 -46.2130 -46.1831   4.9569   8.8854  14.1081  14.9453
    15.3792  15.8125  16.5506  22.1609  27.2267  27.7676  27.7723

          k = 0.0000 0.3322 0.0000 (  2789 PWs)   bands (ev):

   -85.8907 -46.3737 -46.2750 -46.1781   5.0320  13.2591  13.2614  13.8798
    16.0841  16.1038  17.8736  18.0991  20.9861  27.4846  27.5670

          k = 0.0000 0.3322 0.1143 (  2789 PWs)   bands (ev):

   -85.8907 -46.3740 -46.2750 -46.1781   5.2164  12.6003  13.3363  14.1216
    16.0514  16.1113  16.9814  18.1561  22.6694  26.1281  27.7624

          k = 0.0000 0.3322 0.2287 (  2799 PWs)   bands (ev):

   -85.8906 -46.3748 -46.2749 -46.1781   5.7128  11.3709  13.5378  14.3116
    15.9157  15.9867  16.1206  18.5759  24.1623  25.8857  28.2559

          k = 0.0000 0.3322 0.3430 (  2794 PWs)   bands (ev):

   -85.8906 -46.3754 -46.2748 -46.1780   6.2591  10.3268  13.7581  14.3592
    15.3804  15.9368  16.1273  19.0094  23.1245  28.4910  28.7360

          k = 0.0000 0.4983 0.0000 (  2798 PWs)   bands (ev):

   -85.8857 -46.3687 -46.3244 -46.1740   7.4079  10.4859  12.9798  14.2485
    15.7873  16.1618  17.5751  20.2706  21.7557  23.7011  27.3379

          k = 0.0000 0.4983 0.1143 (  2793 PWs)   bands (ev):

   -85.8857 -46.3690 -46.3244 -46.1740   7.5512  10.5799  12.9714  14.2282
    15.7924  16.1370  17.2249  19.0271  21.7430  24.5923  28.9743

          k = 0.0000 0.4983 0.2287 (  2796 PWs)   bands (ev):

   -85.8857 -46.3697 -46.3243 -46.1740   7.9064  10.8622  12.8627  14.1448
    15.8039  16.0817  16.2002  18.1568  20.5735  27.3403  30.0351

          k = 0.0000 0.4983 0.3430 (  2813 PWs)   bands (ev):

   -85.8856 -46.3702 -46.3242 -46.1739   8.2328  11.3081  12.4417  14.0536
    15.5332  15.8132  16.0381  17.7159  19.9493  30.0286  30.1702

          k = 0.1661 0.1661 0.0000 (  2805 PWs)   bands (ev):

   -85.8941 -46.3772 -46.2114 -46.2100   4.0477  13.4681  13.6508  14.0507
    15.6331  16.2916  17.3763  20.6447  20.7454  23.1719  32.3026

          k = 0.1661 0.1661 0.1143 (  2793 PWs)   bands (ev):

   -85.8941 -46.3776 -46.2114 -46.2100   4.2451  12.2701  14.0882  14.2758
    15.5338  16.2909  16.8426  20.8508  22.1838  23.4040  30.9022

          k = 0.1661 0.1661 0.2287 (  2790 PWs)   bands (ev):

   -85.8941 -46.3784 -46.2113 -46.2100   4.7841  10.6435  14.1865  14.7132
    15.3104  16.1578  16.3531  21.3411  23.6485  25.3942  29.2143

          k = 0.1661 0.1661 0.3430 (  2788 PWs)   bands (ev):

   -85.8941 -46.3790 -46.2113 -46.2099   5.3994   9.3788  14.2897  15.0548
    15.1177  15.7565  16.3326  21.7823  24.1580  28.1621  28.3369

          k = 0.1661 0.3322 0.0000 (  2795 PWs)   bands (ev):

   -85.8879 -46.3710 -46.2723 -46.2053   5.5142  13.4155  13.4570  14.1484
    15.5478  15.8845  17.9894  18.8594  21.3502  23.6807  27.8229

          k = 0.1661 0.3322 0.1143 (  2785 PWs)   bands (ev):

   -85.8879 -46.3713 -46.2722 -46.2053   5.6928  12.8327  13.5343  14.3651
    15.4499  15.9025  17.6542  18.2903  22.9955  23.9846  26.5434

          k = 0.1661 0.3322 0.2287 (  2789 PWs)   bands (ev):

   -85.8879 -46.3721 -46.2722 -46.2052   6.1711  11.7158  13.6882  14.5839
    15.2864  15.9306  16.5720  18.7474  23.9172  24.7560  26.5288

          k = 0.1661 0.3322 0.3430 (  2793 PWs)   bands (ev):

   -85.8879 -46.3726 -46.2721 -46.2052   6.6909  10.7504  13.8266  14.6324
    15.3253  15.9018  15.9958  19.2320  23.5786  24.2621  29.5283

          k = 0.1661 0.4983 0.0000 (  2801 PWs)   bands (ev):

   -85.8830 -46.3660 -46.3214 -46.2009   7.8561  10.8763  13.1926  14.5523
    15.4705  15.6496  17.5498  20.9919  22.3600  24.0090  25.7199

          k = 0.1661 0.4983 0.1143 (  2799 PWs)   bands (ev):

   -85.8830 -46.3663 -46.3214 -46.2009   7.9930  10.9705  13.1158  14.5667
    15.5287  15.6189  17.3939  19.5325  22.3938  24.4448  26.1924

          k = 0.1661 0.4983 0.2287 (  2796 PWs)   bands (ev):

   -85.8829 -46.3670 -46.3213 -46.2009   8.3324  11.2363  12.9066  14.5094
    15.4582  15.8311  16.7775  18.3405  20.9646  25.3964  28.0838

          k = 0.1661 0.4983 0.3430 (  2803 PWs)   bands (ev):

   -85.8829 -46.3675 -46.3212 -46.2008   8.6453  11.5999  12.5810  14.3202
    15.4886  16.1011  16.1444  17.8043  20.1536  25.7233  29.3051

          k = 0.3322 0.3322 0.0000 (  2789 PWs)   bands (ev):

   -85.8818 -46.3649 -46.2672 -46.2650   6.9265  13.6612  13.6964  14.3675
    14.9227  15.6867  17.7531  20.3177  20.8757  22.4468  28.1014

          k = 0.3322 0.3322 0.1143 (  2793 PWs)   bands (ev):

   -85.8818 -46.3652 -46.2672 -46.2650   7.0861  13.1845  14.0609  14.1128
    15.0901  15.7213  18.0532  18.9012  20.8422  24.2833  27.4844

          k = 0.3322 0.3322 0.2287 (  2782 PWs)   bands (ev):

   -85.8818 -46.3659 -46.2671 -46.2650   7.5056  12.4502  13.7634  14.5577
    15.2575  15.7889  17.3220  18.8238  20.7335  25.5678  26.1846

          k = 0.3322 0.3322 0.3430 (  2790 PWs)   bands (ev):

   -85.8818 -46.3664 -46.2670 -46.2649   7.9432  11.7796  13.5587  15.2220
    15.3297  15.8357  16.1835  19.6458  20.6252  24.0606  25.7716

          k = 0.3322 0.4983 0.0000 (  2791 PWs)   bands (ev):

   -85.8769 -46.3600 -46.3147 -46.2612   9.1352  11.9289  13.7159  14.5938
    14.8290  15.4219  17.4108  21.6488  22.1366  23.7844  25.2038

          k = 0.3322 0.4983 0.1143 (  2783 PWs)   bands (ev):

   -85.8769 -46.3603 -46.3147 -46.2611   9.2519  11.9996  13.3591  14.6914
    15.1569  15.5274  17.4469  20.6771  21.5479  23.8273  24.2422

          k = 0.3322 0.4983 0.2287 (  2788 PWs)   bands (ev):

   -85.8768 -46.3609 -46.3146 -46.2611   9.5406  12.1368  12.8975  14.8510
    15.4958  16.0588  17.3965  18.9170  21.1762  22.2962  24.5084

          k = 0.3322 0.4983 0.3430 (  2791 PWs)   bands (ev):

   -85.8768 -46.3615 -46.3145 -46.2611   9.8085  12.2149  12.6142  15.3373
    15.6213  16.4302  16.9954  18.0277  20.6615  21.6384  24.7214

          k = 0.4983 0.4983 0.0000 (  2767 PWs)   bands (ev):

   -85.8720 -46.3552 -46.3095 -46.3091  10.9013  12.9616  14.0293  14.1678
    14.3535  15.2220  17.3177  19.9741  21.4473  22.8239  26.5090

          k = 0.4983 0.4983 0.1143 (  2783 PWs)   bands (ev):

   -85.8720 -46.3555 -46.3095 -46.3090  10.9922  12.8432  13.3014  14.2903
    15.3079  15.6240  17.3593  19.6139  21.1346  22.3627  25.1569

          k = 0.4983 0.4983 0.2287 (  2794 PWs)   bands (ev):

   -85.8719 -46.3561 -46.3094 -46.3090  11.2022  12.6090  12.7057  14.8681
    16.3955  16.4159  17.6388  18.8099  20.0108  21.6659  23.1786

          k = 0.4983 0.4983 0.3430 (  2790 PWs)   bands (ev):

   -85.8719 -46.3566 -46.3094 -46.3089  11.3668  12.4016  12.4846  15.7197
    16.8764  16.9638  18.1506  18.6767  18.7445  21.1448  21.2089

     the Fermi energy is    17.8965 ev

!    total energy              =    -344.06851287 Ry
     estimated scf accuracy    <          9.0E-09 Ry
     smearing contrib. (-TS)   =      -0.00022675 Ry
     internal energy E=F+TS    =    -344.06828611 Ry

     The total energy is F=E-TS. E is the sum of the following terms:
     one-electron contribution =    -222.68201056 Ry
     hartree contribution      =     125.86446342 Ry
     xc contribution           =     -46.27210150 Ry
     ewald contribution        =    -200.97863748 Ry

     convergence has been achieved in   8 iterations

     Forces acting on atoms (cartesian axes, Ry/au):

     atom    1 type  1   force =     0.00000000    0.00000000    0.00000000
     atom    2 type  2   force =     0.00000000    0.00000000    0.00000000

     Total force =     0.000000     Total SCF correction =     0.000000


     Computing stress (Cartesian axis) and pressure

          total   stress  (Ry/bohr**3)                   (kbar)     P=      155.71
   0.00158395   0.00000000   0.00000000          233.01        0.00        0.00
   0.00000000   0.00158395   0.00000000            0.00      233.01        0.00
   0.00000000   0.00000000   0.00000758            0.00        0.00        1.11


     Writing all to output data dir ./tmp/SiNi-relax.save/ :
     XML data file, charge density, pseudopotentials, collected wavefunctions

     init_run     :      1.87s CPU      1.94s WALL (       2 calls)
     electrons    :     69.79s CPU     71.86s WALL (       6 calls)
     update_pot   :      0.07s CPU      0.07s WALL (       4 calls)
     forces       :      1.55s CPU      1.58s WALL (       6 calls)
     stress       :      6.18s CPU      6.29s WALL (       6 calls)

     Called by init_run:
     wfcinit      :      1.18s CPU      1.24s WALL (       2 calls)
     potinit      :      0.17s CPU      0.17s WALL (       2 calls)
     hinit0       :      0.49s CPU      0.49s WALL (       2 calls)

     Called by electrons:
     c_bands      :     62.37s CPU     64.11s WALL (      36 calls)
     sum_band     :      6.95s CPU      7.26s WALL (      36 calls)
     v_of_rho     :      0.48s CPU      0.50s WALL (      39 calls)
     mix_rho      :      0.05s CPU      0.06s WALL (      36 calls)

     Called by c_bands:
     init_us_2    :      1.91s CPU      2.00s WALL (    3440 calls)
     cegterg      :     59.34s CPU     61.01s WALL (    1440 calls)

     Called by *egterg:
     cdiaghg      :      0.78s CPU      0.82s WALL (    5259 calls)
     h_psi        :     44.54s CPU     46.04s WALL (    5619 calls)
     g_psi        :      0.31s CPU      0.32s WALL (    4099 calls)

     Called by h_psi:
     h_psi:calbec :      5.41s CPU      5.52s WALL (    5619 calls)
     vloc_psi     :     33.94s CPU     35.26s WALL (    5619 calls)
                                        0.00s GPU  (    5619 calls)
     add_vuspsi   :      4.93s CPU      5.01s WALL (    5619 calls)

     General routines
     calbec       :     10.55s CPU     10.75s WALL (    9699 calls)
     fft          :      0.29s CPU      0.30s WALL (     541 calls)
     ffts         :      0.02s CPU      0.02s WALL (      36 calls)
     fftw         :     35.12s CPU     36.91s WALL (  143144 calls)


     PWSCF        :   1m19.53s CPU   1m21.84s WALL


   This run was terminated on:  20:37: 8   7Jan2026            

=------------------------------------------------------------------------------=
   JOB DONE.
=------------------------------------------------------------------------------=
