
     Program PWSCF v.7.5 starts on  7Jan2026 at 20:20:25 

     This program is part of the open-source Quantum ESPRESSO suite
     for quantum simulation of materials; please cite
         "P. Giannozzi et al., J. Phys.:Condens. Matter 21 395502 (2009);
         "P. Giannozzi et al., J. Phys.:Condens. Matter 29 465901 (2017);
         "P. Giannozzi et al., J. Chem. Phys. 152 154105 (2020);
          URL http://www.quantum-espresso.org", 
     in publications or presentations arising from this work. More details at
     http://www.quantum-espresso.org/quote

     Serial version
     819 MiB available memory on the printing compute node when the environment starts

     Waiting for input...
     Reading input from standard input

     Current dimensions of program PWSCF are:
     Max number of different atomic species (ntypx) = 10
     Max number of k-points (npk) =  40000
     Max angular momentum in pseudopotentials (lmaxx) =  4
     Message from routine setup:
     using ibrav=0 with symmetry is DISCOURAGED, use correct ibrav instead


     G-vector sticks info
     --------------------
     sticks:   dense  smooth     PW     G-vecs:    dense   smooth      PW
     Sum         973     973    293                23247    23247    3743

     Using Slab Decomposition



     bravais-lattice index     =            0
     lattice parameter (alat)  =       5.3733  a.u.
     unit-cell volume          =     148.9966 (a.u.)^3
     number of atoms/cell      =            2
     number of atomic types    =            2
     number of electrons       =        22.00
     number of Kohn-Sham states=           15
     kinetic-energy cutoff     =     110.0000  Ry
     charge density cutoff     =     440.0000  Ry
     scf convergence threshold =      1.0E-06
     mixing beta               =       0.7000
     number of iterations used =            8  plain     mixing
     energy convergence thresh.=      1.0E-04
     force convergence thresh. =      1.0E-03
     press convergence thresh. =      5.0E-01
     Exchange-correlation= PBE
                           (   1   4   3   4   0   0   0)
     nstep                     =           50


     celldm(1)=   5.373304  celldm(2)=   0.000000  celldm(3)=   0.000000
     celldm(4)=   0.000000  celldm(5)=   0.000000  celldm(6)=   0.000000

     crystal axes: (cart. coord. in units of alat)
               a(1) = (   0.980000   0.000000   0.000000 )  
               a(2) = (   0.000000   0.980000   0.000000 )  
               a(3) = (   0.000000   0.000000   1.000000 )  

     reciprocal axes: (cart. coord. in units 2 pi/alat)
               b(1) = (  1.020408  0.000000  0.000000 )  
               b(2) = (  0.000000  1.020408  0.000000 )  
               b(3) = (  0.000000  0.000000  1.000000 )  


     PseudoPot. # 1 for Si read from file:
     ./PSEUDO/Si.upf
     MD5 check sum: 02fab3f35e82123ef5bf1cb05d5b1a5e
     Pseudo is Norm-conserving + core correction, Zval =  4.0
     Generated using ONCVPSP code by D. R. Hamann
     Using radial grid of 1510 points,  6 beta functions with: 
                l(1) =   0
                l(2) =   0
                l(3) =   1
                l(4) =   1
                l(5) =   2
                l(6) =   2

     PseudoPot. # 2 for Ni read from file:
     ./PSEUDO/Ni.upf
     MD5 check sum: 2b0a79d100e227970886d6963e34175b
     Pseudo is Norm-conserving + core correction, Zval = 18.0
     Generated using ONCVPSP code by D. R. Hamann
     Using radial grid of 1372 points,  6 beta functions with: 
                l(1) =   0
                l(2) =   0
                l(3) =   1
                l(4) =   1
                l(5) =   2
                l(6) =   2

     atomic species   valence    mass     pseudopotential
     Si                4.00    28.08550     Si( 1.00)
     Ni               18.00    58.69340     Ni( 1.00)

     16 Sym. Ops., with inversion, found



   Cartesian axes

     site n.     atom                  positions (alat units)
         1        Si     tau(   1) = (   0.0000000   0.0000000   0.0000000  )
         2        Ni     tau(   2) = (   0.4900000   0.4900000   0.5000000  )

     number of k points=    40  Methfessel-Paxton smearing, width (Ry)=  0.0400
                       cart. coord. in units 2pi/alat
        k(    1) = (   0.0000000   0.0000000   0.0000000), wk =   0.0058309
        k(    2) = (   0.0000000   0.0000000   0.1428571), wk =   0.0116618
        k(    3) = (   0.0000000   0.0000000   0.2857143), wk =   0.0116618
        k(    4) = (   0.0000000   0.0000000   0.4285714), wk =   0.0116618
        k(    5) = (   0.0000000   0.1457726   0.0000000), wk =   0.0233236
        k(    6) = (   0.0000000   0.1457726   0.1428571), wk =   0.0466472
        k(    7) = (   0.0000000   0.1457726   0.2857143), wk =   0.0466472
        k(    8) = (   0.0000000   0.1457726   0.4285714), wk =   0.0466472
        k(    9) = (   0.0000000   0.2915452   0.0000000), wk =   0.0233236
        k(   10) = (   0.0000000   0.2915452   0.1428571), wk =   0.0466472
        k(   11) = (   0.0000000   0.2915452   0.2857143), wk =   0.0466472
        k(   12) = (   0.0000000   0.2915452   0.4285714), wk =   0.0466472
        k(   13) = (   0.0000000   0.4373178   0.0000000), wk =   0.0233236
        k(   14) = (   0.0000000   0.4373178   0.1428571), wk =   0.0466472
        k(   15) = (   0.0000000   0.4373178   0.2857143), wk =   0.0466472
        k(   16) = (   0.0000000   0.4373178   0.4285714), wk =   0.0466472
        k(   17) = (   0.1457726   0.1457726   0.0000000), wk =   0.0233236
        k(   18) = (   0.1457726   0.1457726   0.1428571), wk =   0.0466472
        k(   19) = (   0.1457726   0.1457726   0.2857143), wk =   0.0466472
        k(   20) = (   0.1457726   0.1457726   0.4285714), wk =   0.0466472
        k(   21) = (   0.1457726   0.2915452   0.0000000), wk =   0.0466472
        k(   22) = (   0.1457726   0.2915452   0.1428571), wk =   0.0932945
        k(   23) = (   0.1457726   0.2915452   0.2857143), wk =   0.0932945
        k(   24) = (   0.1457726   0.2915452   0.4285714), wk =   0.0932945
        k(   25) = (   0.1457726   0.4373178   0.0000000), wk =   0.0466472
        k(   26) = (   0.1457726   0.4373178   0.1428571), wk =   0.0932945
        k(   27) = (   0.1457726   0.4373178   0.2857143), wk =   0.0932945
        k(   28) = (   0.1457726   0.4373178   0.4285714), wk =   0.0932945
        k(   29) = (   0.2915452   0.2915452   0.0000000), wk =   0.0233236
        k(   30) = (   0.2915452   0.2915452   0.1428571), wk =   0.0466472
        k(   31) = (   0.2915452   0.2915452   0.2857143), wk =   0.0466472
        k(   32) = (   0.2915452   0.2915452   0.4285714), wk =   0.0466472
        k(   33) = (   0.2915452   0.4373178   0.0000000), wk =   0.0466472
        k(   34) = (   0.2915452   0.4373178   0.1428571), wk =   0.0932945
        k(   35) = (   0.2915452   0.4373178   0.2857143), wk =   0.0932945
        k(   36) = (   0.2915452   0.4373178   0.4285714), wk =   0.0932945
        k(   37) = (   0.4373178   0.4373178   0.0000000), wk =   0.0233236
        k(   38) = (   0.4373178   0.4373178   0.1428571), wk =   0.0466472
        k(   39) = (   0.4373178   0.4373178   0.2857143), wk =   0.0466472
        k(   40) = (   0.4373178   0.4373178   0.4285714), wk =   0.0466472

     Dense  grid:    23247 G-vectors     FFT dimensions: (  36,  36,  36)

     Estimated max dynamical RAM per process >      51.86 MB

     Initial potential from superposition of free atoms

     starting charge      21.9992, renormalised to      22.0000
     Starting wfcs are   14 randomized atomic wfcs +    1 random wfcs

     total cpu time spent up to now is        1.2 secs

     Self-consistent Calculation

     iteration #  1     ecut=   110.00 Ry     beta= 0.70
     Davidson diagonalization with overlap
     ethr =  1.00E-02,  avg # of iterations =  3.8

     Threshold (ethr) on eigenvalues was too large:
     Diagonalizing with lowered threshold

     Davidson diagonalization with overlap
     ethr =  8.34E-04,  avg # of iterations =  1.2

     total cpu time spent up to now is        4.3 secs

     total energy              =    -343.97309582 Ry
     estimated scf accuracy    <       0.17757844 Ry

     iteration #  2     ecut=   110.00 Ry     beta= 0.70
     Davidson diagonalization with overlap
     ethr =  8.07E-04,  avg # of iterations =  2.8

     total cpu time spent up to now is        6.2 secs

     total energy              =    -343.79458987 Ry
     estimated scf accuracy    <       2.15156916 Ry

     iteration #  3     ecut=   110.00 Ry     beta= 0.70
     Davidson diagonalization with overlap
     ethr =  8.07E-04,  avg # of iterations =  2.5

     total cpu time spent up to now is        7.8 secs

     total energy              =    -344.08343997 Ry
     estimated scf accuracy    <       0.00493594 Ry

     iteration #  4     ecut=   110.00 Ry     beta= 0.70
     Davidson diagonalization with overlap
     ethr =  2.24E-05,  avg # of iterations =  2.6

     total cpu time spent up to now is        9.3 secs

     total energy              =    -344.08419709 Ry
     estimated scf accuracy    <       0.00044644 Ry

     iteration #  5     ecut=   110.00 Ry     beta= 0.70
     Davidson diagonalization with overlap
     ethr =  2.03E-06,  avg # of iterations =  2.8

     total cpu time spent up to now is       10.7 secs

     total energy              =    -344.08422621 Ry
     estimated scf accuracy    <       0.00004793 Ry

     iteration #  6     ecut=   110.00 Ry     beta= 0.70
     Davidson diagonalization with overlap
     ethr =  2.18E-07,  avg # of iterations =  2.0

     total cpu time spent up to now is       12.1 secs

     total energy              =    -344.08423774 Ry
     estimated scf accuracy    <       0.00000793 Ry

     iteration #  7     ecut=   110.00 Ry     beta= 0.70
     Davidson diagonalization with overlap
     ethr =  3.60E-08,  avg # of iterations =  1.2

     total cpu time spent up to now is       13.4 secs

     End of self-consistent calculation

          k = 0.0000 0.0000 0.0000 (  2929 PWs)   bands (ev):

   -86.7938 -47.1860 -47.1738 -47.1738   2.9179  13.0032  13.0346  14.9487
    14.9487  15.0154  19.4091  20.1047  20.1047  24.0777  24.2138

          k = 0.0000 0.0000 0.1429 (  2902 PWs)   bands (ev):

   -86.7934 -47.1913 -47.1734 -47.1734   3.2896  12.7263  13.1379  14.7268
    14.7268  15.0353  17.5477  20.6645  20.6645  24.1527  25.8380

          k = 0.0000 0.0000 0.2857 (  2918 PWs)   bands (ev):

   -86.7927 -47.2031 -47.1725 -47.1725   4.3774  11.2365  13.3821  14.3121
    14.3121  15.0802  16.0273  22.1017  22.1017  23.9933  27.2781

          k = 0.0000 0.0000 0.4286 (  2902 PWs)   bands (ev):

   -86.7921 -47.2125 -47.1717 -47.1717   6.0216   8.8836  13.5920  14.0338
    14.0338  15.1166  15.8174  23.8387  24.0314  24.0314  27.0949

          k = 0.0000 0.1458 0.0000 (  2901 PWs)   bands (ev):

   -86.7933 -47.1855 -47.1804 -47.1733   3.3062  12.8103  13.1248  14.6787
    14.7801  14.9723  17.9937  20.0221  20.6800  24.0619  25.7551

          k = 0.0000 0.1458 0.1429 (  2915 PWs)   bands (ev):

   -86.7930 -47.1907 -47.1800 -47.1729   3.6724  12.8106  13.0143  14.4141
    14.7127  14.8694  17.9206  18.5766  21.1920  24.9735  27.2828

          k = 0.0000 0.1458 0.2857 (  2906 PWs)   bands (ev):

   -86.7922 -47.2024 -47.1790 -47.1720   4.7415  11.4706  13.2489  14.0997
    14.3583  14.9044  16.2346  19.6109  22.5192  25.0512  27.5907

          k = 0.0000 0.1458 0.4286 (  2894 PWs)   bands (ev):

   -86.7916 -47.2118 -47.1782 -47.1712   6.3381   9.2261  13.5681  13.8522
    14.0983  14.9523  15.8302  20.9863  24.0877  24.2484  26.1872

          k = 0.0000 0.2915 0.0000 (  2878 PWs)   bands (ev):

   -86.7923 -47.1952 -47.1843 -47.1721   4.4447  11.4337  13.3936  14.1974
    14.3431  15.0259  16.2311  21.5503  22.1526  23.9498  27.0353

          k = 0.0000 0.2915 0.1429 (  2904 PWs)   bands (ev):

   -86.7920 -47.1947 -47.1894 -47.1717   4.7923  11.6448  13.1997  14.0444
    14.3826  14.8658  16.4132  19.2918  22.5557  25.0218  27.4561

          k = 0.0000 0.2915 0.2857 (  2903 PWs)   bands (ev):

   -86.7912 -47.2010 -47.1936 -47.1707   5.7964  11.9461  12.3085  13.9728
    14.4159  14.6009  16.3300  17.8173  23.2964  23.5716  26.8419

          k = 0.0000 0.2915 0.4286 (  2900 PWs)   bands (ev):

   -86.7906 -47.2103 -47.1927 -47.1700   7.2270  10.1927  12.8221  13.8115
    14.2473  14.6143  15.8133  18.5853  20.8768  24.6994  27.4739

          k = 0.0000 0.4373 0.0000 (  2898 PWs)   bands (ev):

   -86.7915 -47.2071 -47.1833 -47.1711   6.1907   9.0149  13.6257  13.8850
    14.0511  15.0694  15.9734  23.6019  23.8350  24.1456  26.5927

          k = 0.0000 0.4373 0.1429 (  2891 PWs)   bands (ev):

   -86.7912 -47.2065 -47.1884 -47.1707   6.4908   9.3335  13.5154  13.8002
    14.1094  14.9198  15.9725  20.7927  23.7522  24.3514  26.2026

          k = 0.0000 0.4373 0.2857 (  2905 PWs)   bands (ev):

   -86.7904 -47.2053 -47.1999 -47.1698   7.3267  10.2308  12.7730  13.8011
    14.2441  14.6102  15.9026  18.4939  20.7194  24.7617  27.5620

          k = 0.0000 0.4373 0.4286 (  2902 PWs)   bands (ev):

   -86.7898 -47.2091 -47.2044 -47.1690   8.3676  11.3050  11.8183  13.3994
    14.3517  14.3878  15.6951  17.7090  18.6483  25.0777  29.1483

          k = 0.1458 0.1458 0.0000 (  2907 PWs)   bands (ev):

   -86.7929 -47.1850 -47.1800 -47.1797   3.6891  12.8708  13.0231  14.5015
    14.6287  14.8192  18.1573  18.7784  20.5766  24.6752  27.6042

          k = 0.1458 0.1458 0.1429 (  2905 PWs)   bands (ev):

   -86.7925 -47.1902 -47.1796 -47.1793   4.0499  12.9011  12.9627  14.3062
    14.5724  14.6095  18.3909  18.6276  19.2677  27.2527  27.6111

          k = 0.1458 0.1458 0.2857 (  2903 PWs)   bands (ev):

   -86.7918 -47.2018 -47.1786 -47.1783   5.1002  11.6847  13.1794  14.1355
    14.1675  14.6951  16.5016  19.7418  20.2024  26.6988  27.3410

          k = 0.1458 0.1458 0.4286 (  2897 PWs)   bands (ev):

   -86.7912 -47.2111 -47.1777 -47.1776   6.6506   9.5553  13.3703  13.8441
    14.2574  14.7606  15.8792  21.0377  21.6084  24.6334  24.7260

          k = 0.1458 0.2915 0.0000 (  2892 PWs)   bands (ev):

   -86.7919 -47.1946 -47.1837 -47.1786   4.8093  11.6578  13.2644  14.1557
    14.2462  14.8368  16.4172  19.6871  21.9846  24.8420  27.7506

          k = 0.1458 0.2915 0.1429 (  2903 PWs)   bands (ev):

   -86.7915 -47.1941 -47.1889 -47.1782   5.1514  11.8489  13.1446  14.0920
    14.1921  14.6469  16.6678  19.5787  20.0944  26.6148  27.3292

          k = 0.1458 0.2915 0.2857 (  2903 PWs)   bands (ev):

   -86.7908 -47.2004 -47.1930 -47.1772   6.1371  12.1585  12.3089  14.0728
    14.1671  14.4990  16.7526  17.9065  20.9012  23.7500  27.9535

          k = 0.1458 0.2915 0.4286 (  2907 PWs)   bands (ev):

   -86.7902 -47.2096 -47.1921 -47.1764   7.5287  10.4603  12.6413  13.9147
    14.4325  14.5572  15.9429  18.6944  21.2101  22.0098  25.8233

          k = 0.1458 0.4373 0.0000 (  2889 PWs)   bands (ev):

   -86.7910 -47.2064 -47.1828 -47.1776   6.5086   9.3495  13.6014  13.8944
    13.9561  14.8932  15.9754  21.1348  23.8329  24.1462  26.0189

          k = 0.1458 0.4373 0.1429 (  2899 PWs)   bands (ev):

   -86.7907 -47.2059 -47.1878 -47.1772   6.8043   9.6556  13.3210  13.8628
    14.2225  14.7168  16.0141  20.9957  21.5589  24.3173  24.7537

          k = 0.1458 0.4373 0.2857 (  2897 PWs)   bands (ev):

   -86.7900 -47.2047 -47.1993 -47.1762   7.6287  10.4947  12.5976  13.9063
    14.4240  14.5566  16.0412  18.6014  21.0442  22.0892  25.8234

          k = 0.1458 0.4373 0.4286 (  2907 PWs)   bands (ev):

   -86.7894 -47.2084 -47.2037 -47.1754   8.6628  11.4233  11.7029  13.5251
    14.6613  14.7060  15.8009  17.6093  18.7804  22.8508  26.9273

          k = 0.2915 0.2915 0.0000 (  2902 PWs)   bands (ev):

   -86.7909 -47.1934 -47.1930 -47.1825   5.8657  12.0587  12.4005  14.0491
    14.2976  14.5250  16.4020  17.9815  23.0668  23.5134  26.5251

          k = 0.2915 0.2915 0.1429 (  2891 PWs)   bands (ev):

   -86.7905 -47.1929 -47.1925 -47.1876   6.1894  12.2538  12.3672  14.0366
    14.1668  14.4511  16.8122  18.0592  20.5825  23.9763  27.7008

          k = 0.2915 0.2915 0.2857 (  2907 PWs)   bands (ev):

   -86.7898 -47.1990 -47.1918 -47.1915   7.1130  12.2227  12.2753  13.8485
    14.3919  14.4135  17.8094  17.8768  18.3854  24.6607  24.7021

          k = 0.2915 0.2915 0.4286 (  2906 PWs)   bands (ev):

   -86.7892 -47.2082 -47.1909 -47.1906   8.3751  11.0742  12.1900  14.2442
    14.4033  14.9510  16.2684  18.5842  19.4550  21.8850  22.6086

          k = 0.2915 0.4373 0.0000 (  2889 PWs)   bands (ev):

   -86.7901 -47.2049 -47.1921 -47.1815   7.3997  10.2925  12.9035  13.8781
    14.1209  14.5340  15.9209  18.7076  21.0182  24.2830  27.1966

          k = 0.2915 0.4373 0.1429 (  2900 PWs)   bands (ev):

   -86.7897 -47.2044 -47.1916 -47.1866   7.6837  10.5388  12.6678  13.9399
    14.3820  14.5076  16.0491  18.7942  21.3086  21.8093  25.4597

          k = 0.2915 0.4373 0.2857 (  2904 PWs)   bands (ev):

   -86.7890 -47.2032 -47.1979 -47.1905   8.4747  11.0960  12.1744  14.2019
    14.4108  14.9762  16.3644  18.5330  19.4653  21.8557  22.5099

          k = 0.2915 0.4373 0.4286 (  2915 PWs)   bands (ev):

   -86.7884 -47.2070 -47.2023 -47.1897   9.4799  11.4818  11.5179  14.2907
    15.2031  15.3168  16.4391  17.1012  18.9537  20.5207  23.4572

          k = 0.4373 0.4373 0.0000 (  2894 PWs)   bands (ev):

   -86.7893 -47.2037 -47.2036 -47.1805   8.5372  11.3979  11.9312  13.4783
    14.2470  14.2868  15.7515  17.8228  18.8319  24.6292  28.8838

          k = 0.4373 0.4373 0.1429 (  2900 PWs)   bands (ev):

   -86.7889 -47.2032 -47.2031 -47.1856   8.8139  11.4932  11.7739  13.5505
    14.6172  14.6500  15.8498  17.6950  18.9389  22.6417  26.6107

          k = 0.4373 0.4373 0.2857 (  2915 PWs)   bands (ev):

   -86.7882 -47.2021 -47.2020 -47.1968   9.5748  11.5063  11.5279  14.2658
    15.2247  15.3206  16.4644  17.1068  19.0121  20.5609  23.3615

          k = 0.4373 0.4373 0.4286 (  2921 PWs)   bands (ev):

   -86.7876 -47.2059 -47.2012 -47.2011  10.5031  11.3382  11.3552  15.3633
    15.4066  15.9194  16.3934  17.9348  17.9679  20.5174  20.6366

     the Fermi energy is    17.4906 ev

!    total energy              =    -344.08423780 Ry
     estimated scf accuracy    <       0.00000063 Ry
     smearing contrib. (-TS)   =       0.00105631 Ry
     internal energy E=F+TS    =    -344.08529412 Ry

     The total energy is F=E-TS. E is the sum of the following terms:
     one-electron contribution =    -215.93672224 Ry
     hartree contribution      =     121.78956392 Ry
     xc contribution           =     -46.20408350 Ry
     ewald contribution        =    -203.73405230 Ry

     convergence has been achieved in   7 iterations

     Forces acting on atoms (cartesian axes, Ry/au):

     atom    1 type  1   force =     0.00000000    0.00000000    0.00000000
     atom    2 type  2   force =     0.00000000    0.00000000    0.00000000

     Total force =     0.000000     Total SCF correction =     0.000000


     Computing stress (Cartesian axis) and pressure

          total   stress  (Ry/bohr**3)                   (kbar)     P=       74.81
   0.00051781   0.00000000   0.00000000           76.17        0.00        0.00
   0.00000000   0.00051781   0.00000000            0.00       76.17        0.00
   0.00000000   0.00000000   0.00048998            0.00        0.00       72.08


     BFGS Geometry Optimization
     Energy error            =      8.9E-04 Ry
     Gradient error          =      0.0E+00 Ry/Bohr
     Cell gradient error     =      7.2E+01 kbar

     number of scf cycles    =   1
     number of bfgs steps    =   0

     enthalpy           new  =    -344.0842378033 Ry

     new trust radius        =       0.0299043191 bohr
     new conv_thr            =       0.0000010000 Ry

     new unit-cell volume =    150.82170 a.u.^3 (    22.34947 Ang^3 )
     density =      6.44757 g/cm^3

CELL_PARAMETERS (alat=  5.37330365)
   0.980000000   0.000000000   0.000000000
   0.000000000   0.980000000   0.000000000
   0.000000000   0.000000000   1.012249427

ATOMIC_POSITIONS (crystal)
Si               0.0000000000        0.0000000000        0.0000000000
Ni               0.5000000000        0.5000000000        0.5000000000



     Writing config-only to output data dir ./tmp/SiNi-relax.save/ :
     XML data file
     NEW-OLD atomic charge density approx. for the potential
     New effective cutoffs (rho, wfc):  439.57  109.98

     total cpu time spent up to now is       14.7 secs

     Self-consistent Calculation

     iteration #  1     ecut=   110.00 Ry     beta= 0.70
     Davidson diagonalization with overlap
     ethr =  1.00E-06,  avg # of iterations =  5.6

     total cpu time spent up to now is       17.5 secs

     total energy              =    -344.08491052 Ry
     estimated scf accuracy    <       0.00018654 Ry

     iteration #  2     ecut=   110.00 Ry     beta= 0.70
     Davidson diagonalization with overlap
     ethr =  8.48E-07,  avg # of iterations =  2.9

     total cpu time spent up to now is       19.3 secs

     total energy              =    -344.08479289 Ry
     estimated scf accuracy    <       0.00187523 Ry

     iteration #  3     ecut=   110.00 Ry     beta= 0.70
     Davidson diagonalization with overlap
     ethr =  8.48E-07,  avg # of iterations =  2.3

     total cpu time spent up to now is       21.0 secs

     End of self-consistent calculation

          k = 0.0000 0.0000 0.0000 (  2929 PWs)   bands (ev):

   -87.0153 -47.4119 -47.3914 -47.3914   2.7809  12.8131  12.8645  14.7179
    14.7179  14.8222  18.8681  19.9653  19.9653  23.7273  23.9737

          k = 0.0000 0.0000 0.1411 (  2902 PWs)   bands (ev):

   -87.0151 -47.4164 -47.3911 -47.3911   3.1426  12.5119  12.9618  14.5105
    14.5105  14.8403  17.1125  20.5061  20.5061  23.9117  25.5411

          k = 0.0000 0.0000 0.2823 (  2918 PWs)   bands (ev):

   -87.0144 -47.4266 -47.3903 -47.3903   4.2000  10.9796  13.1915  14.1192
    14.1192  14.8812  15.7035  21.9025  21.9025  23.7512  27.0222

          k = 0.0000 0.0000 0.4234 (  2902 PWs)   bands (ev):

   -87.0139 -47.4347 -47.3896 -47.3896   5.7855   8.6686  13.3883  13.8547
    13.8547  14.9143  15.5185  23.5973  23.7672  23.7672  26.8689

          k = 0.0000 0.1458 0.0000 (  2901 PWs)   bands (ev):

   -87.0149 -47.4113 -47.3980 -47.3909   3.1689  12.6470  12.9401  14.4337
    14.5943  14.7418  17.8163  19.4944  20.5304  23.7365  25.4361

          k = 0.0000 0.1458 0.1411 (  2915 PWs)   bands (ev):

   -87.0146 -47.4158 -47.3976 -47.3905   3.5253  12.6099  12.8372  14.1850
    14.5082  14.6683  17.5417  18.3369  21.0252  24.7440  26.8686

          k = 0.0000 0.1458 0.2823 (  2906 PWs)   bands (ev):

   -87.0140 -47.4259 -47.3968 -47.3897   4.5643  11.2191  13.0689  13.8954
    14.1657  14.7085  15.9174  19.3781  22.3132  24.8201  27.2538

          k = 0.0000 0.1458 0.4234 (  2894 PWs)   bands (ev):

   -87.0135 -47.4340 -47.3961 -47.3891   6.1029   9.0151  13.3758  13.6588
    13.9187  14.7528  15.5359  20.7045  23.8629  23.9787  25.9112

          k = 0.0000 0.2915 0.0000 (  2878 PWs)   bands (ev):

   -87.0139 -47.4127 -47.4101 -47.3897   4.3072  11.2936  13.2079  13.9375
    14.1683  14.7960  16.0232  21.0357  21.9836  23.6581  26.6501

          k = 0.0000 0.2915 0.1411 (  2904 PWs)   bands (ev):

   -87.0136 -47.4146 -47.4122 -47.3893   4.6452  11.4965  12.9873  13.8094
    14.2045  14.6475  16.1980  18.8736  22.3716  24.7652  27.0392

          k = 0.0000 0.2915 0.2823 (  2903 PWs)   bands (ev):

   -87.0130 -47.4245 -47.4113 -47.3885   5.6201  11.7283  12.1205  13.7585
    14.2287  14.4052  16.0650  17.5138  22.9681  23.3516  26.5869

          k = 0.0000 0.2915 0.4234 (  2900 PWs)   bands (ev):

   -87.0125 -47.4325 -47.4105 -47.3879   6.9966   9.9938  12.6278  13.6058
    14.0662  14.4203  15.5360  18.2915  20.6077  24.4303  27.1983

          k = 0.0000 0.4373 0.0000 (  2898 PWs)   bands (ev):

   -87.0131 -47.4245 -47.4091 -47.3887   6.0551   8.8739  13.4391  13.6197
    13.8824  14.8400  15.7648  23.0959  23.5725  23.9505  26.0714

          k = 0.0000 0.4373 0.1411 (  2891 PWs)   bands (ev):

   -87.0128 -47.4240 -47.4135 -47.3884   6.3462   9.1829  13.2840  13.5828
    13.9368  14.7013  15.7605  20.3963  23.3254  24.1434  25.9346

          k = 0.0000 0.4373 0.2823 (  2905 PWs)   bands (ev):

   -87.0122 -47.4234 -47.4229 -47.3876   7.1552  10.0525  12.5498  13.5888
    14.0623  14.4127  15.6775  18.1489  20.3566  24.5290  27.3361

          k = 0.0000 0.4373 0.4234 (  2902 PWs)   bands (ev):

   -87.0117 -47.4313 -47.4221 -47.3869   8.1519  11.1047  11.6130  13.1956
    14.1642  14.2026  15.4468  17.4009  18.3481  24.8235  28.8687

          k = 0.1458 0.1458 0.0000 (  2907 PWs)   bands (ev):

   -87.0144 -47.4108 -47.3975 -47.3973   3.5518  12.7119  12.8455  14.3233
    14.3781  14.5859  17.9639  18.6061  20.0566  24.2511  27.4166

          k = 0.1458 0.1458 0.1411 (  2905 PWs)   bands (ev):

   -87.0142 -47.4153 -47.3972 -47.3969   3.9027  12.6988  12.7991  14.0844
    14.3519  14.4152  18.0103  18.4184  19.0417  26.8112  27.4130

          k = 0.1458 0.1458 0.2823 (  2903 PWs)   bands (ev):

   -87.0135 -47.4253 -47.3963 -47.3961   4.9233  11.4391  13.0062  13.9311
    13.9679  14.5018  16.1867  19.5019  19.9767  26.4384  27.0108

          k = 0.1458 0.1458 0.4234 (  2897 PWs)   bands (ev):

   -87.0130 -47.4334 -47.3956 -47.3954   6.4166   9.3482  13.1955  13.6408
    14.0661  14.5643  15.5876  20.7521  21.3278  24.4111  24.4781

          k = 0.1458 0.2915 0.0000 (  2892 PWs)   bands (ev):

   -87.0134 -47.4121 -47.4096 -47.3962   4.6722  11.5172  13.0920  13.9836
    13.9881  14.6021  16.2047  19.4983  21.4730  24.4610  27.5137

          k = 0.1458 0.2915 0.1411 (  2903 PWs)   bands (ev):

   -87.0132 -47.4140 -47.4116 -47.3958   5.0048  11.7005  12.9475  13.8574
    14.0138  14.4256  16.4481  19.1928  19.8582  26.2797  26.9798

          k = 0.1458 0.2915 0.2823 (  2903 PWs)   bands (ev):

   -87.0125 -47.4239 -47.4107 -47.3950   5.9618  11.9361  12.1359  13.8655
    13.9738  14.3008  16.4843  17.6046  20.6662  23.4119  27.6588

          k = 0.1458 0.2915 0.4234 (  2907 PWs)   bands (ev):

   -87.0121 -47.4319 -47.4099 -47.3943   7.3004  10.2653  12.4600  13.7142
    14.2368  14.3582  15.6626  18.4016  20.9463  21.7264  25.5913

          k = 0.1458 0.4373 0.0000 (  2889 PWs)   bands (ev):

   -87.0126 -47.4238 -47.4086 -47.3952   6.3746   9.2084  13.4274  13.6943
    13.7238  14.6597  15.7653  20.9409  23.3284  23.9450  25.6351

          k = 0.1458 0.4373 0.1411 (  2899 PWs)   bands (ev):

   -87.0124 -47.4233 -47.4130 -47.3948   6.6615   9.5051  13.1123  13.6672
    14.0175  14.4948  15.8006  20.6393  21.2986  23.8751  24.5529

          k = 0.1458 0.4373 0.2823 (  2897 PWs)   bands (ev):

   -87.0117 -47.4228 -47.4223 -47.3940   7.4595  10.3181  12.3904  13.7005
    14.2230  14.3573  15.8181  18.2564  20.6818  21.8526  25.5902

          k = 0.1458 0.4373 0.4234 (  2907 PWs)   bands (ev):

   -87.0113 -47.4307 -47.4215 -47.3933   8.4502  11.2274  11.5116  13.3292
    14.4582  14.5080  15.5532  17.3034  18.4866  22.5737  26.6656

          k = 0.2915 0.2915 0.0000 (  2902 PWs)   bands (ev):

   -87.0124 -47.4109 -47.4105 -47.4083   5.7305  11.9156  12.2577  13.8781
    14.0419  14.2859  16.1847  17.7661  22.5584  23.3069  26.0772

          k = 0.2915 0.2915 0.1411 (  2891 PWs)   bands (ev):

   -87.0122 -47.4127 -47.4104 -47.4101   6.0451  12.0991  12.2165  13.7967
    13.9840  14.2254  16.5852  17.8381  20.1634  23.7680  27.2640

          k = 0.2915 0.2915 0.2823 (  2907 PWs)   bands (ev):

   -87.0116 -47.4226 -47.4095 -47.4092   6.9414  12.0272  12.1113  13.6431
    14.1815  14.2156  17.5120  17.6329  18.1013  24.3210  24.3687

          k = 0.2915 0.2915 0.4234 (  2906 PWs)   bands (ev):

   -87.0111 -47.4305 -47.4088 -47.4085   8.1549  10.8921  12.0194  14.0569
    14.1970  14.7253  15.9864  18.2935  19.1762  21.6212  22.3565

          k = 0.2915 0.4373 0.0000 (  2889 PWs)   bands (ev):

   -87.0116 -47.4223 -47.4096 -47.4073   7.2716  10.1506  12.7557  13.7092
    13.8675  14.2937  15.7081  18.4846  20.8274  23.7773  26.7497

          k = 0.2915 0.4373 0.1411 (  2900 PWs)   bands (ev):

   -87.0114 -47.4218 -47.4117 -47.4091   7.5472  10.3883  12.5001  13.7504
    14.1598  14.2807  15.8318  18.5582  21.0870  21.4241  25.0141

          k = 0.2915 0.4373 0.2823 (  2904 PWs)   bands (ev):

   -87.0108 -47.4215 -47.4209 -47.4082   8.3136  10.9252  11.9942  13.9892
    14.2082  14.7662  16.1378  18.2092  19.1989  21.5558  22.2152

          k = 0.2915 0.4373 0.4234 (  2915 PWs)   bands (ev):

   -87.0103 -47.4293 -47.4201 -47.4075   9.2784  11.2979  11.3504  14.0936
    14.9707  15.1055  16.1938  16.8015  18.6877  20.2173  23.1663

          k = 0.4373 0.4373 0.0000 (  2894 PWs)   bands (ev):

   -87.0108 -47.4211 -47.4210 -47.4064   8.4222  11.2539  11.7888  13.3185
    14.0005  14.0431  15.5398  17.5764  18.6353  24.1189  28.4417

          k = 0.4373 0.4373 0.1411 (  2900 PWs)   bands (ev):

   -87.0106 -47.4207 -47.4206 -47.4107   8.6912  11.3408  11.6201  13.3672
    14.3912  14.4190  15.6340  17.4338  18.7342  22.2460  26.1703

          k = 0.4373 0.4373 0.2823 (  2915 PWs)   bands (ev):

   -87.0100 -47.4204 -47.4197 -47.4197   9.4301  11.3394  11.3623  14.0535
    15.0115  15.1056  16.2358  16.8060  18.7783  20.2839  23.0151

          k = 0.4373 0.4373 0.4234 (  2921 PWs)   bands (ev):

   -87.0095 -47.4282 -47.4190 -47.4189  10.3252  11.1657  11.1944  15.1250
    15.1960  15.6289  16.1542  17.6856  17.7363  20.2019  20.3815

     the Fermi energy is    17.1883 ev

!    total energy              =    -344.08503380 Ry
     estimated scf accuracy    <       0.00000034 Ry
     smearing contrib. (-TS)   =       0.00138987 Ry
     internal energy E=F+TS    =    -344.08642366 Ry

     The total energy is F=E-TS. E is the sum of the following terms:
     one-electron contribution =    -217.32590616 Ry
     hartree contribution      =     122.31123705 Ry
     xc contribution           =     -46.18647000 Ry
     ewald contribution        =    -202.88528455 Ry

     convergence has been achieved in   3 iterations

     Forces acting on atoms (cartesian axes, Ry/au):

     atom    1 type  1   force =     0.00000000    0.00000000    0.00000000
     atom    2 type  2   force =     0.00000000    0.00000000    0.00000000

     Total force =     0.000000     Total SCF correction =     0.000000


     Computing stress (Cartesian axis) and pressure

          total   stress  (Ry/bohr**3)                   (kbar)     P=       49.73
   0.00035224   0.00000000   0.00000000           51.82        0.00        0.00
   0.00000000   0.00035224   0.00000000            0.00       51.82        0.00
   0.00000000   0.00000000   0.00030976            0.00        0.00       45.57

     Energy error            =      8.0E-04 Ry
     Gradient error          =      0.0E+00 Ry/Bohr
     Cell gradient error     =      4.6E+01 kbar

     number of scf cycles    =   2
     number of bfgs steps    =   1

     enthalpy           old  =    -344.0842378033 Ry
     enthalpy           new  =    -344.0850337955 Ry

     CASE: enthalpy          _new < enthalpy          _old

     new trust radius        =       0.0445842441 bohr
     new conv_thr            =       0.0000000100 Ry

     new unit-cell volume =    153.55939 a.u.^3 (    22.75515 Ang^3 )
     density =      6.33262 g/cm^3

CELL_PARAMETERS (alat=  5.37330365)
   0.980000000   0.000000000   0.000000000
   0.000000000   0.980000000   0.000000000
   0.000000000   0.000000000   1.030623567

ATOMIC_POSITIONS (crystal)
Si               0.0000000000        0.0000000000        0.0000000000
Ni               0.5000000000        0.5000000000        0.5000000000



     Writing config-only to output data dir ./tmp/SiNi-relax.save/ :
     XML data file
     NEW-OLD atomic charge density approx. for the potential
     New effective cutoffs (rho, wfc):  439.38  109.98

     total cpu time spent up to now is       22.3 secs

     Self-consistent Calculation

     iteration #  1     ecut=   110.00 Ry     beta= 0.70
     Davidson diagonalization with overlap
     ethr =  1.00E-06,  avg # of iterations =  6.1

     total cpu time spent up to now is       25.4 secs

     total energy              =    -344.08543714 Ry
     estimated scf accuracy    <       0.00023606 Ry

     iteration #  2     ecut=   110.00 Ry     beta= 0.70
     Davidson diagonalization with overlap
     ethr =  1.07E-06,  avg # of iterations =  2.7

     total cpu time spent up to now is       27.1 secs

     total energy              =    -344.08528412 Ry
     estimated scf accuracy    <       0.00238774 Ry

     iteration #  3     ecut=   110.00 Ry     beta= 0.70
     Davidson diagonalization with overlap
     ethr =  1.07E-06,  avg # of iterations =  2.2

     total cpu time spent up to now is       28.8 secs

     total energy              =    -344.08558914 Ry
     estimated scf accuracy    <       0.00000073 Ry

     iteration #  4     ecut=   110.00 Ry     beta= 0.70
     Davidson diagonalization with overlap
     ethr =  3.33E-09,  avg # of iterations =  3.9

     total cpu time spent up to now is       30.7 secs

     total energy              =    -344.08558978 Ry
     estimated scf accuracy    <       0.00000087 Ry

     iteration #  5     ecut=   110.00 Ry     beta= 0.70
     Davidson diagonalization with overlap
     ethr =  3.33E-09,  avg # of iterations =  1.0

     total cpu time spent up to now is       31.9 secs

     total energy              =    -344.08558977 Ry
     estimated scf accuracy    <       0.00000015 Ry

     iteration #  6     ecut=   110.00 Ry     beta= 0.70
     Davidson diagonalization with overlap
     ethr =  6.73E-10,  avg # of iterations =  2.0

     total cpu time spent up to now is       33.4 secs

     End of self-consistent calculation

          k = 0.0000 0.0000 0.0000 (  2929 PWs)   bands (ev):

   -87.3312 -47.7349 -47.7018 -47.7018   2.5802  12.5373  12.6185  14.3873
    14.3873  14.5453  18.0928  19.7608  19.7608  23.1774  23.6245

          k = 0.0000 0.0000 0.1386 (  2902 PWs)   bands (ev):

   -87.3310 -47.7385 -47.7015 -47.7015   2.9275  12.1990  12.7076  14.1997
    14.1997  14.5610  16.4872  20.2747  20.2747  23.5612  25.0700

          k = 0.0000 0.0000 0.2772 (  2918 PWs)   bands (ev):

   -87.3305 -47.7467 -47.7009 -47.7009   3.9408  10.6068  12.9172  13.8407
    13.8407  14.5965  15.2402  21.6113  21.6113  23.3996  26.6448

          k = 0.0000 0.0000 0.4158 (  2902 PWs)   bands (ev):

   -87.3301 -47.7532 -47.7004 -47.7004   5.4402   8.3602  13.0960  13.5957
    13.5957  14.6252  15.0901  23.2471  23.3792  23.3792  26.5469

          k = 0.0000 0.1458 0.0000 (  2901 PWs)   bands (ev):

   -87.3308 -47.7343 -47.7083 -47.7012   2.9680  12.4099  12.6732  14.0803
    14.3275  14.4116  17.5568  18.7403  20.3115  23.2175  24.9903

          k = 0.0000 0.1458 0.1386 (  2915 PWs)   bands (ev):

   -87.3305 -47.7380 -47.7080 -47.7010   3.3100  12.3123  12.5856  13.8540
    14.2097  14.3845  16.9680  18.0191  20.7818  24.4036  26.2205

          k = 0.0000 0.1458 0.2772 (  2906 PWs)   bands (ev):

   -87.3301 -47.7461 -47.7073 -47.7003   4.3052  10.8542  12.8093  13.6005
    13.8874  14.4283  15.4627  19.0397  22.0123  24.4847  26.7671

          k = 0.0000 0.1458 0.4158 (  2894 PWs)   bands (ev):

   -87.3297 -47.7525 -47.7068 -47.6998   5.7591   8.7123  13.0979  13.3817
    13.6587  14.4678  15.1137  20.2935  23.5389  23.5841  25.5122

          k = 0.0000 0.2915 0.0000 (  2878 PWs)   bands (ev):

   -87.3298 -47.7331 -47.7228 -47.7000   4.1059  11.0902  12.9389  13.5624
    13.9170  14.4666  15.7213  20.3003  21.7364  23.1982  26.1135

          k = 0.0000 0.2915 0.1386 (  2904 PWs)   bands (ev):

   -87.3296 -47.7367 -47.7225 -47.6998   4.4299  11.2813  12.6765  13.4732
    13.9484  14.3339  15.8852  18.2719  22.1028  24.3787  26.4305

          k = 0.0000 0.2915 0.2772 (  2903 PWs)   bands (ev):

   -87.3291 -47.7447 -47.7217 -47.6991   5.3624  11.4049  11.8565  13.4505
    13.9586  14.1248  15.6756  17.0828  22.4935  23.0306  26.2169

          k = 0.0000 0.2915 0.4158 (  2900 PWs)   bands (ev):

   -87.3287 -47.7511 -47.7211 -47.6987   6.6600   9.7075  12.3476  13.3107
    13.8039  14.1430  15.1361  17.8646  20.2231  24.0390  26.7976

          k = 0.0000 0.4373 0.0000 (  2898 PWs)   bands (ev):

   -87.3290 -47.7345 -47.7321 -47.6991   5.8563   8.6683  13.1688  13.2376
    13.6397  14.5112  15.4641  22.3712  23.1642  23.6646  25.3225

          k = 0.0000 0.4373 0.1386 (  2891 PWs)   bands (ev):

   -87.3288 -47.7356 -47.7341 -47.6988   6.1343   8.9634  12.9410  13.2783
    13.6888  14.3872  15.4547  19.8200  22.7055  23.8395  25.5380

          k = 0.0000 0.4373 0.2772 (  2905 PWs)   bands (ev):

   -87.3283 -47.7436 -47.7333 -47.6982   6.9040   9.7933  12.2278  13.2839
    13.8018  14.1274  15.3511  17.6518  19.8352  24.1903  27.0037

          k = 0.0000 0.4373 0.4158 (  2902 PWs)   bands (ev):

   -87.3279 -47.7499 -47.7326 -47.6977   7.8372  10.8116  11.3189  12.9038
    13.8946  13.9357  15.0862  16.9565  17.9200  24.4548  28.4584

          k = 0.1458 0.1458 0.0000 (  2907 PWs)   bands (ev):

   -87.3303 -47.7338 -47.7078 -47.7076   3.3507  12.4821  12.5878  14.0159
    14.0671  14.2517  17.6817  18.3543  19.3144  23.6109  27.1428

          k = 0.1458 0.1458 0.1386 (  2905 PWs)   bands (ev):

   -87.3301 -47.7374 -47.7075 -47.7073   3.6874  12.4035  12.5626  13.7591
    14.0352  14.1411  17.4414  18.1140  18.7371  26.1283  27.1229

          k = 0.1458 0.1458 0.2772 (  2903 PWs)   bands (ev):

   -87.3296 -47.7454 -47.7069 -47.7066   4.6646  11.0827  12.7563  13.6372
    13.6785  14.2252  15.7350  19.1524  19.6496  26.0576  26.5330

          k = 0.1458 0.1458 0.4158 (  2897 PWs)   bands (ev):

   -87.3293 -47.7519 -47.7063 -47.7061   6.0748   9.0508  12.9429  13.3494
    13.7890  14.2836  15.1693  20.3358  20.9190  24.0902  24.1224

          k = 0.1458 0.2915 0.0000 (  2892 PWs)   bands (ev):

   -87.3293 -47.7326 -47.7222 -47.7065   4.4715  11.3130  12.8422  13.6158
    13.7360  14.2657  15.8961  19.2229  20.7420  23.8764  27.1800

          k = 0.1458 0.2915 0.1386 (  2903 PWs)   bands (ev):

   -87.3291 -47.7361 -47.7219 -47.7062   4.7903  11.4853  12.6583  13.5216
    13.7573  14.1083  16.1292  18.6120  19.5412  25.7631  26.4374

          k = 0.1458 0.2915 0.2772 (  2903 PWs)   bands (ev):

   -87.3286 -47.7441 -47.7211 -47.7055   5.7053  11.6091  11.8905  13.5648
    13.6968  14.0173  16.0888  17.1768  20.3244  22.9245  27.2242

          k = 0.1458 0.2915 0.4158 (  2907 PWs)   bands (ev):

   -87.3283 -47.7505 -47.7205 -47.7050   6.9671   9.9846  12.1981  13.4261
    13.9551  14.0726  15.2590  17.9760  20.5686  21.3143  25.2564

          k = 0.1458 0.4373 0.0000 (  2889 PWs)   bands (ev):

   -87.3285 -47.7339 -47.7316 -47.7055   6.1781   9.0026  13.1748  13.3174
    13.4787  14.3248  15.4626  20.6576  22.6065  23.6340  25.0776

          k = 0.1458 0.4373 0.1386 (  2899 PWs)   bands (ev):

   -87.3283 -47.7351 -47.7335 -47.7052   6.4522   9.2859  12.8047  13.3836
    13.7300  14.1759  15.4928  20.0885  20.9560  23.2344  24.2630

          k = 0.1458 0.4373 0.2772 (  2897 PWs)   bands (ev):

   -87.3279 -47.7430 -47.7327 -47.7045   7.2118  10.0615  12.0910  13.4048
    13.9332  14.0713  15.4953  17.7592  20.1606  21.5080  25.2516

          k = 0.1458 0.4373 0.4158 (  2907 PWs)   bands (ev):

   -87.3275 -47.7493 -47.7320 -47.7040   8.1399  10.9401  11.2389  13.0479
    14.1643  14.2248  15.1937  16.8623  18.0673  22.1709  26.2784

          k = 0.2915 0.2915 0.0000 (  2902 PWs)   bands (ev):

   -87.3283 -47.7313 -47.7211 -47.7207   5.5325  11.7084  12.0506  13.6312
    13.6733  13.9435  15.8701  17.4518  21.8313  22.9969  25.4263

          k = 0.2915 0.2915 0.1386 (  2891 PWs)   bands (ev):

   -87.3281 -47.7348 -47.7207 -47.7203   5.8339  11.8749  11.9979  13.4465
    13.7247  13.9017  16.2565  17.5151  19.5611  23.4625  26.6297

          k = 0.2915 0.2915 0.2772 (  2907 PWs)   bands (ev):

   -87.3277 -47.7427 -47.7200 -47.7196   6.6904  11.7439  11.8741  13.3462
    13.8797  13.9325  17.0664  17.2781  17.7065  23.8315  23.8882

          k = 0.2915 0.2915 0.4158 (  2906 PWs)   bands (ev):

   -87.3273 -47.7490 -47.7194 -47.7191   7.8335  10.6303  11.7731  13.7881
    13.9011  14.3992  15.5804  17.8731  18.7670  21.2440  21.9932

          k = 0.2915 0.4373 0.0000 (  2889 PWs)   bands (ev):

   -87.3275 -47.7324 -47.7303 -47.7198   7.0838   9.9440  12.5414  13.4650
    13.5034  13.9491  15.4015  18.1591  20.5496  23.0540  26.0930

          k = 0.2915 0.4373 0.1386 (  2900 PWs)   bands (ev):

   -87.3273 -47.7338 -47.7320 -47.7194   7.3473  10.1695  12.2554  13.4726
    13.8451  13.9561  15.5188  18.2125  20.6970  20.9391  24.3715

          k = 0.2915 0.4373 0.2772 (  2904 PWs)   bands (ev):

   -87.3269 -47.7416 -47.7313 -47.7187   8.0778  10.6776  11.7342  13.6821
    13.9174  14.4644  15.8100  17.7394  18.8139  21.1032  21.8089

          k = 0.2915 0.4373 0.4158 (  2915 PWs)   bands (ev):

   -87.3265 -47.7479 -47.7306 -47.7182   8.9842  11.0307  11.1112  13.8104
    14.6320  14.8049  15.8372  16.3701  18.3059  19.7759  22.7453

          k = 0.4373 0.4373 0.0000 (  2894 PWs)   bands (ev):

   -87.3267 -47.7312 -47.7312 -47.7294   8.2543  11.0445  11.5809  13.0868
    13.6470  13.6938  15.2353  17.2153  18.3511  23.3894  27.7898

          k = 0.4373 0.4373 0.1386 (  2900 PWs)   bands (ev):

   -87.3265 -47.7328 -47.7309 -47.7308   8.5122  11.1196  11.3960  13.1002
    14.0684  14.0876  15.3238  17.0506  18.4380  21.6774  25.5333

          k = 0.4373 0.4373 0.2772 (  2915 PWs)   bands (ev):

   -87.3261 -47.7406 -47.7301 -47.7301   9.2192  11.0977  11.1238  13.7471
    14.7052  14.7955  15.9054  16.3682  18.4398  19.8832  22.5166

          k = 0.4373 0.4373 0.4158 (  2921 PWs)   bands (ev):

   -87.3257 -47.7468 -47.7295 -47.7295  10.0657  10.9167  10.9649  14.7813
    14.8940  15.2028  15.8162  17.3244  17.3977  19.7479  19.9999

     the Fermi energy is    16.7367 ev

!    total energy              =    -344.08558980 Ry
     estimated scf accuracy    <          4.7E-09 Ry
     smearing contrib. (-TS)   =       0.00180864 Ry
     internal energy E=F+TS    =    -344.08739844 Ry

     The total energy is F=E-TS. E is the sum of the following terms:
     one-electron contribution =    -219.39881804 Ry
     hartree contribution      =     123.08926197 Ry
     xc contribution           =     -46.15991824 Ry
     ewald contribution        =    -201.61792413 Ry

     convergence has been achieved in   6 iterations

     Forces acting on atoms (cartesian axes, Ry/au):

     atom    1 type  1   force =     0.00000000    0.00000000    0.00000000
     atom    2 type  2   force =     0.00000000    0.00000000    0.00000000

     Total force =     0.000000     Total SCF correction =     0.000000


     Computing stress (Cartesian axis) and pressure

          total   stress  (Ry/bohr**3)                   (kbar)     P=       15.93
   0.00012970   0.00000000   0.00000000           19.08        0.00        0.00
   0.00000000   0.00012970   0.00000000            0.00       19.08        0.00
   0.00000000   0.00000000   0.00006549            0.00        0.00        9.63

     Energy error            =      5.6E-04 Ry
     Gradient error          =      0.0E+00 Ry/Bohr
     Cell gradient error     =      9.6E+00 kbar

     number of scf cycles    =   3
     number of bfgs steps    =   2

     enthalpy           old  =    -344.0850337955 Ry
     enthalpy           new  =    -344.0855897976 Ry

     CASE: enthalpy          _new < enthalpy          _old

     new trust radius        =       0.0118456494 bohr
     new conv_thr            =       0.0000000100 Ry

     new unit-cell volume =    154.29334 a.u.^3 (    22.86391 Ang^3 )
     density =      6.30250 g/cm^3

CELL_PARAMETERS (alat=  5.37330365)
   0.980000000   0.000000000   0.000000000
   0.000000000   0.980000000   0.000000000
   0.000000000   0.000000000   1.035549526

ATOMIC_POSITIONS (crystal)
Si               0.0000000000        0.0000000000        0.0000000000
Ni               0.5000000000        0.5000000000        0.5000000000



     Writing config-only to output data dir ./tmp/SiNi-relax.save/ :
     XML data file
     NEW-OLD atomic charge density approx. for the potential
     New effective cutoffs (rho, wfc):  439.34  109.98

     total cpu time spent up to now is       34.8 secs

     Self-consistent Calculation

     iteration #  1     ecut=   110.00 Ry     beta= 0.70
     Davidson diagonalization with overlap
     ethr =  1.00E-06,  avg # of iterations =  4.1

     Threshold (ethr) on eigenvalues was too large:
     Diagonalizing with lowered threshold

     Davidson diagonalization with overlap
     ethr =  6.04E-08,  avg # of iterations =  1.7

     total cpu time spent up to now is       38.4 secs

     total energy              =    -344.08560520 Ry
     estimated scf accuracy    <       0.00001542 Ry

     iteration #  2     ecut=   110.00 Ry     beta= 0.70
     Davidson diagonalization with overlap
     ethr =  7.01E-08,  avg # of iterations =  2.7

     total cpu time spent up to now is       40.2 secs

     total energy              =    -344.08559532 Ry
     estimated scf accuracy    <       0.00015432 Ry

     iteration #  3     ecut=   110.00 Ry     beta= 0.70
     Davidson diagonalization with overlap
     ethr =  7.01E-08,  avg # of iterations =  2.2

     total cpu time spent up to now is       41.9 secs

     total energy              =    -344.08561508 Ry
     estimated scf accuracy    <       0.00000005 Ry

     iteration #  4     ecut=   110.00 Ry     beta= 0.70
     Davidson diagonalization with overlap
     ethr =  2.43E-10,  avg # of iterations =  3.8

     total cpu time spent up to now is       43.7 secs

     total energy              =    -344.08561512 Ry
     estimated scf accuracy    <       0.00000005 Ry

     iteration #  5     ecut=   110.00 Ry     beta= 0.70
     Davidson diagonalization with overlap
     ethr =  2.43E-10,  avg # of iterations =  1.0

     total cpu time spent up to now is       45.0 secs

     End of self-consistent calculation

          k = 0.0000 0.0000 0.0000 (  2929 PWs)   bands (ev):

   -87.4155 -47.8210 -47.7844 -47.7844   2.5274  12.4639  12.5531  14.3002
    14.3002  14.4717  17.8921  19.7068  19.7068  23.0249  23.5325

          k = 0.0000 0.0000 0.1380 (  2902 PWs)   bands (ev):

   -87.4153 -47.8244 -47.7842 -47.7842   2.8709  12.1157  12.6400  14.1175
    14.1175  14.4868  16.3247  20.2137  20.2137  23.4691  24.9369

          k = 0.0000 0.0000 0.2759 (  2918 PWs)   bands (ev):

   -87.4149 -47.8321 -47.7836 -47.7836   3.8726  10.5089  12.8445  13.7668
    13.7668  14.5210  15.1190  21.5346  21.5346  23.3075  26.5448

          k = 0.0000 0.0000 0.4139 (  2902 PWs)   bands (ev):

   -87.4145 -47.8382 -47.7831 -47.7831   5.3495   8.2801  13.0187  13.5268
    13.5268  14.5485  14.9775  23.1556  23.2766  23.2766  26.4636

          k = 0.0000 0.1458 0.0000 (  2901 PWs)   bands (ev):

   -87.4151 -47.8204 -47.7909 -47.7839   2.9151  12.3467  12.6023  13.9869
    14.2565  14.3246  17.4880  18.5455  20.2538  23.0719  24.8776

          k = 0.0000 0.1458 0.1380 (  2915 PWs)   bands (ev):

   -87.4149 -47.8238 -47.7906 -47.7836   3.2533  12.2325  12.5194  13.7665
    14.1300  14.3098  16.8158  17.9385  20.7176  24.3122  26.0430

          k = 0.0000 0.1458 0.2759 (  2906 PWs)   bands (ev):

   -87.4144 -47.8315 -47.7900 -47.7831   4.2371  10.7584  12.7405  13.5225
    13.8135  14.3539  15.3437  18.9505  21.9330  24.3969  26.6399

          k = 0.0000 0.1458 0.4139 (  2894 PWs)   bands (ev):

   -87.4141 -47.8376 -47.7895 -47.7826   5.6688   8.6336  13.0241  13.3086
    13.5896  14.3922  15.0025  20.1853  23.4544  23.4801  25.4082

          k = 0.0000 0.2915 0.0000 (  2878 PWs)   bands (ev):

   -87.4141 -47.8192 -47.8055 -47.7827   4.0529  11.0366  12.8672  13.4634
    13.8501  14.3798  15.6409  20.1102  21.6711  23.0701  25.9780

          k = 0.0000 0.2915 0.1380 (  2904 PWs)   bands (ev):

   -87.4139 -47.8226 -47.8051 -47.7825   4.3733  11.2246  12.5936  13.3850
    13.8803  14.2511  15.8019  18.1152  22.0320  24.2744  26.2692

          k = 0.0000 0.2915 0.2759 (  2903 PWs)   bands (ev):

   -87.4134 -47.8301 -47.8044 -47.7819   5.2945  11.3187  11.7884  13.3692
    13.8867  14.0506  15.5715  16.9709  22.3696  22.9461  26.1200

          k = 0.0000 0.2915 0.4139 (  2900 PWs)   bands (ev):

   -87.4131 -47.8361 -47.8039 -47.7814   6.5717   9.6328  12.2740  13.2328
    13.7341  14.0695  15.0303  17.7519  20.1232  23.9363  26.6928

          k = 0.0000 0.4373 0.0000 (  2898 PWs)   bands (ev):

   -87.4133 -47.8182 -47.8171 -47.7818   5.8039   8.6142  13.0967  13.1370
    13.5750  14.4245  15.3840  22.1835  23.0518  23.5890  25.1281

          k = 0.0000 0.4373 0.1380 (  2891 PWs)   bands (ev):

   -87.4131 -47.8215 -47.8168 -47.7815   6.0785   8.9058  12.8493  13.1989
    13.6227  14.3041  15.3733  19.6688  22.5434  23.7593  25.4317

          k = 0.0000 0.4373 0.2759 (  2905 PWs)   bands (ev):

   -87.4127 -47.8290 -47.8160 -47.7809   6.8378   9.7252  12.1434  13.2034
    13.7326  14.0516  15.2640  17.5217  19.6994  24.1012  26.9157

          k = 0.0000 0.4373 0.4139 (  2902 PWs)   bands (ev):

   -87.4123 -47.8350 -47.8154 -47.7805   7.7545  10.7342  11.2427  12.8271
    13.8230  13.8647  14.9900  16.8396  17.8088  24.3584  28.3503

          k = 0.1458 0.1458 0.0000 (  2907 PWs)   bands (ev):

   -87.4146 -47.8199 -47.7905 -47.7902   3.2978  12.4210  12.5192  13.9200
    13.9988  14.1638  17.6071  18.2876  19.1228  23.4385  27.0707

          k = 0.1458 0.1458 0.1380 (  2905 PWs)   bands (ev):

   -87.4144 -47.8233 -47.7902 -47.7900   3.6308  12.3248  12.4999  13.6724
    13.9516  14.0689  17.2908  18.0335  18.6597  25.9419  27.0464

          k = 0.1458 0.1458 0.2759 (  2903 PWs)   bands (ev):

   -87.4140 -47.8309 -47.7896 -47.7894   4.5966  10.9891  12.6901  13.5595
    13.6016  14.1519  15.6167  19.0601  19.5637  25.9574  26.4083

          k = 0.1458 0.1458 0.4139 (  2897 PWs)   bands (ev):

   -87.4137 -47.8369 -47.7891 -47.7889   5.9850   8.9734  12.8760  13.2724
    13.7155  14.2092  15.0592  20.2261  20.8115  24.0063  24.0300

          k = 0.1458 0.2915 0.0000 (  2892 PWs)   bands (ev):

   -87.4136 -47.8186 -47.8049 -47.7891   4.4186  11.2592  12.7757  13.5176
    13.6701  14.1771  15.8140  19.1501  20.5530  23.7175  27.0943

          k = 0.1458 0.2915 0.1380 (  2903 PWs)   bands (ev):

   -87.4134 -47.8220 -47.8045 -47.7889   4.7338  11.4286  12.5809  13.4335
    13.6889  14.0247  16.0445  18.4583  19.4601  25.6232  26.2858

          k = 0.1458 0.2915 0.2759 (  2903 PWs)   bands (ev):

   -87.4130 -47.8295 -47.8038 -47.7882   5.6378  11.5227  11.8264  13.4850
    13.6235  13.9423  15.9830  17.0659  20.2345  22.7975  27.1095

          k = 0.1458 0.2915 0.4139 (  2907 PWs)   bands (ev):

   -87.4127 -47.8355 -47.8033 -47.7877   6.8795   9.9113  12.1291  13.3499
    13.8804  13.9970  15.1524  17.8638  20.4705  21.2061  25.1688

          k = 0.1458 0.4373 0.0000 (  2889 PWs)   bands (ev):

   -87.4128 -47.8177 -47.8165 -47.7881   6.1263   8.9485  13.1072  13.2182
    13.4135  14.2366  15.3820  20.5826  22.4196  23.5476  24.9331

          k = 0.1458 0.4373 0.1380 (  2899 PWs)   bands (ev):

   -87.4126 -47.8210 -47.8161 -47.7879   6.3970   9.2284  12.7222  13.3082
    13.6551  14.0917  15.4109  19.9406  20.8697  23.0674  24.1868

          k = 0.1458 0.4373 0.2759 (  2897 PWs)   bands (ev):

   -87.4122 -47.8284 -47.8154 -47.7873   7.1465   9.9941  12.0122  13.3267
    13.8564  13.9957  15.4093  17.6291  20.0249  21.4173  25.1629

          k = 0.1458 0.4373 0.4139 (  2907 PWs)   bands (ev):

   -87.4119 -47.8343 -47.8147 -47.7868   8.0584  10.8641  11.1683  12.9737
    14.0863  14.1500  15.0979  16.7463  17.9583  22.0653  26.1763

          k = 0.2915 0.2915 0.0000 (  2902 PWs)   bands (ev):

   -87.4126 -47.8174 -47.8037 -47.8033   5.4803  11.6536  11.9959  13.5653
    13.5762  13.8534  15.7867  17.3682  21.6432  22.9130  25.2561

          k = 0.2915 0.2915 0.1380 (  2891 PWs)   bands (ev):

   -87.4125 -47.8207 -47.8034 -47.8030   5.7783  11.8156  11.9402  13.3539
    13.6561  13.8164  16.1695  17.4291  19.4044  23.3816  26.4638

          k = 0.2915 0.2915 0.2759 (  2907 PWs)   bands (ev):

   -87.4120 -47.8281 -47.8027 -47.8023   6.6243  11.6692  11.8116  13.2679
    13.7999  13.8577  16.9469  17.1842  17.6052  23.7040  23.7627

          k = 0.2915 0.2915 0.4139 (  2906 PWs)   bands (ev):

   -87.4117 -47.8341 -47.8021 -47.8018   7.7490  10.5620  11.7083  13.7170
    13.8229  14.3130  15.4734  17.7632  18.6583  21.1459  21.8982

          k = 0.2915 0.4373 0.0000 (  2889 PWs)   bands (ev):

   -87.4119 -47.8164 -47.8150 -47.8024   7.0343   9.8897  12.4845  13.3999
    13.4076  13.8584  15.3200  18.0726  20.4763  22.8669  25.9197

          k = 0.2915 0.4373 0.1380 (  2900 PWs)   bands (ev):

   -87.4117 -47.8197 -47.8147 -47.8021   7.2946  10.1120  12.1903  13.3981
    13.7630  13.8708  15.4356  18.1205  20.5709  20.8368  24.2040

          k = 0.2915 0.4373 0.2759 (  2904 PWs)   bands (ev):

   -87.4112 -47.8271 -47.8139 -47.8014   8.0156  10.6126  11.6656  13.6010
    13.8405  14.3847  15.7228  17.6164  18.7125  20.9817  21.7059

          k = 0.2915 0.4373 0.4139 (  2915 PWs)   bands (ev):

   -87.4109 -47.8330 -47.8133 -47.8009   8.9067  10.9604  11.0487  13.7356
    14.5420  14.7259  15.7427  16.2574  18.2064  19.6596  22.6352

          k = 0.4373 0.4373 0.0000 (  2894 PWs)   bands (ev):

   -87.4111 -47.8154 -47.8139 -47.8138   8.2100  10.9893  11.5262  13.0253
    13.5540  13.6020  15.1544  17.1187  18.2761  23.2010  27.6172

          k = 0.4373 0.4373 0.1380 (  2900 PWs)   bands (ev):

   -87.4109 -47.8187 -47.8135 -47.8135   8.4650  11.0614  11.3369  13.0292
    13.9838  14.0004  15.2415  16.9483  18.3599  21.5298  25.3669

          k = 0.4373 0.4373 0.2759 (  2915 PWs)   bands (ev):

   -87.4104 -47.8260 -47.8128 -47.8128   9.1636  11.0341  11.0611  13.6662
    14.6242  14.7136  15.8180  16.2530  18.3510  19.7778  22.3868

          k = 0.4373 0.4373 0.4139 (  2921 PWs)   bands (ev):

   -87.4101 -47.8319 -47.8122 -47.8122   9.9971  10.8513  10.9049  14.6900
    14.8140  15.0904  15.7288  17.2296  17.3079  19.6293  19.8972

     the Fermi energy is    16.6164 ev

!    total energy              =    -344.08561511 Ry
     estimated scf accuracy    <          9.3E-09 Ry
     smearing contrib. (-TS)   =       0.00188829 Ry
     internal energy E=F+TS    =    -344.08750340 Ry

     The total energy is F=E-TS. E is the sum of the following terms:
     one-electron contribution =    -219.95589454 Ry
     hartree contribution      =     123.30089161 Ry
     xc contribution           =     -46.15310730 Ry
     ewald contribution        =    -201.27939317 Ry

     convergence has been achieved in   5 iterations

     Forces acting on atoms (cartesian axes, Ry/au):

     atom    1 type  1   force =     0.00000000    0.00000000    0.00000000
     atom    2 type  2   force =     0.00000000    0.00000000    0.00000000

     Total force =     0.000000     Total SCF correction =     0.000000


     Computing stress (Cartesian axis) and pressure

          total   stress  (Ry/bohr**3)                   (kbar)     P=        7.62
   0.00007483   0.00000000   0.00000000           11.01        0.00        0.00
   0.00000000   0.00007483   0.00000000            0.00       11.01        0.00
   0.00000000   0.00000000   0.00000569            0.00        0.00        0.84

     Energy error            =      2.5E-05 Ry
     Gradient error          =      0.0E+00 Ry/Bohr
     Cell gradient error     =      8.4E-01 kbar

     number of scf cycles    =   4
     number of bfgs steps    =   3

     enthalpy           old  =    -344.0855897976 Ry
     enthalpy           new  =    -344.0856151134 Ry

     CASE: enthalpy          _new < enthalpy          _old

     new trust radius        =       0.0011238222 bohr
     new conv_thr            =       0.0000000100 Ry

     new unit-cell volume =    154.36314 a.u.^3 (    22.87426 Ang^3 )
     density =      6.29965 g/cm^3

CELL_PARAMETERS (alat=  5.37330365)
   0.980000000   0.000000000   0.000000000
   0.000000000   0.980000000   0.000000000
   0.000000000   0.000000000   1.036017978

ATOMIC_POSITIONS (crystal)
Si               0.0000000000        0.0000000000        0.0000000000
Ni               0.5000000000        0.5000000000        0.5000000000



     Writing config-only to output data dir ./tmp/SiNi-relax.save/ :
     XML data file
     NEW-OLD atomic charge density approx. for the potential
     New effective cutoffs (rho, wfc):  439.33  109.98

     total cpu time spent up to now is       46.4 secs

     Self-consistent Calculation

     iteration #  1     ecut=   110.00 Ry     beta= 0.70
     Davidson diagonalization with overlap
     ethr =  1.00E-06,  avg # of iterations =  2.0

     Threshold (ethr) on eigenvalues was too large:
     Diagonalizing with lowered threshold

     Davidson diagonalization with overlap
     ethr =  5.54E-10,  avg # of iterations =  3.7

     total cpu time spent up to now is       49.9 secs

     total energy              =    -344.08561491 Ry
     estimated scf accuracy    <       0.00000003 Ry

     iteration #  2     ecut=   110.00 Ry     beta= 0.70
     Davidson diagonalization with overlap
     ethr =  1.56E-10,  avg # of iterations =  2.9

     total cpu time spent up to now is       51.7 secs

     total energy              =    -344.08561489 Ry
     estimated scf accuracy    <       0.00000027 Ry

     iteration #  3     ecut=   110.00 Ry     beta= 0.70
     Davidson diagonalization with overlap
     ethr =  1.56E-10,  avg # of iterations =  2.0

     total cpu time spent up to now is       53.2 secs

     End of self-consistent calculation

          k = 0.0000 0.0000 0.0000 (  2929 PWs)   bands (ev):

   -87.4230 -47.8287 -47.7918 -47.7918   2.5224  12.4572  12.5471  14.2923
    14.2923  14.4650  17.8732  19.7017  19.7017  23.0104  23.5239

          k = 0.0000 0.0000 0.1379 (  2902 PWs)   bands (ev):

   -87.4228 -47.8321 -47.7915 -47.7915   2.8655  12.1080  12.6339  14.1100
    14.1100  14.4801  16.3094  20.2079  20.2079  23.4604  24.9242

          k = 0.0000 0.0000 0.2758 (  2918 PWs)   bands (ev):

   -87.4223 -47.8397 -47.7909 -47.7909   3.8662  10.4997  12.8379  13.7601
    13.7601  14.5141  15.1078  21.5273  21.5273  23.2988  26.5354

          k = 0.0000 0.0000 0.4137 (  2902 PWs)   bands (ev):

   -87.4220 -47.8458 -47.7905 -47.7905   5.3409   8.2726  13.0117  13.5206
    13.5206  14.5416  14.9671  23.1469  23.2669  23.2669  26.4558

          k = 0.0000 0.1458 0.0000 (  2901 PWs)   bands (ev):

   -87.4225 -47.8281 -47.7983 -47.7913   2.9101  12.3409  12.5958  13.9783
    14.2500  14.3167  17.4816  18.5272  20.2483  23.0580  24.8670

          k = 0.0000 0.1458 0.1379 (  2915 PWs)   bands (ev):

   -87.4223 -47.8315 -47.7980 -47.7910   3.2480  12.2251  12.5133  13.7585
    14.1227  14.3031  16.8015  17.9310  20.7116  24.3035  26.0261

          k = 0.0000 0.1458 0.2758 (  2906 PWs)   bands (ev):

   -87.4219 -47.8391 -47.7974 -47.7904   4.2306  10.7494  12.7342  13.5153
    13.8068  14.3471  15.3327  18.9422  21.9255  24.3886  26.6279

          k = 0.0000 0.1458 0.4137 (  2894 PWs)   bands (ev):

   -87.4216 -47.8452 -47.7969 -47.7900   5.6602   8.6262  13.0174  13.3019
    13.5833  14.3854  14.9923  20.1751  23.4464  23.4703  25.3983

          k = 0.0000 0.2915 0.0000 (  2878 PWs)   bands (ev):

   -87.4215 -47.8269 -47.8128 -47.7901   4.0478  11.0316  12.8607  13.4543
    13.8440  14.3719  15.6335  20.0923  21.6649  23.0578  25.9653

          k = 0.0000 0.2915 0.1379 (  2904 PWs)   bands (ev):

   -87.4213 -47.8302 -47.8125 -47.7898   4.3679  11.2193  12.5859  13.3769
    13.8741  14.2436  15.7942  18.1005  22.0253  24.2645  26.2539

          k = 0.0000 0.2915 0.2758 (  2903 PWs)   bands (ev):

   -87.4209 -47.8377 -47.8118 -47.7892   5.2881  11.3106  11.7821  13.3617
    13.8801  14.0438  15.5618  16.9606  22.3579  22.9381  26.1108

          k = 0.0000 0.2915 0.4137 (  2900 PWs)   bands (ev):

   -87.4206 -47.8437 -47.8112 -47.7888   6.5633   9.6257  12.2672  13.2256
    13.7278  14.0628  15.0206  17.7414  20.1139  23.9266  26.6829

          k = 0.0000 0.4373 0.0000 (  2898 PWs)   bands (ev):

   -87.4207 -47.8259 -47.8245 -47.7891   5.7989   8.6091  13.0902  13.1278
    13.5691  14.4166  15.3767  22.1659  23.0411  23.5818  25.1098

          k = 0.0000 0.4373 0.1379 (  2891 PWs)   bands (ev):

   -87.4205 -47.8292 -47.8241 -47.7889   6.0732   8.9004  12.8408  13.1916
    13.6167  14.2966  15.3658  19.6546  22.5281  23.7517  25.4216

          k = 0.0000 0.4373 0.2758 (  2905 PWs)   bands (ev):

   -87.4201 -47.8366 -47.8233 -47.7883   6.8315   9.7188  12.1356  13.1960
    13.7263  14.0448  15.2560  17.5096  19.6867  24.0928  26.9074

          k = 0.0000 0.4373 0.4137 (  2902 PWs)   bands (ev):

   -87.4198 -47.8426 -47.8227 -47.7878   7.7467  10.7269  11.2356  12.8201
    13.8165  13.8583  14.9812  16.8288  17.7984  24.3492  28.3401

          k = 0.1458 0.1458 0.0000 (  2907 PWs)   bands (ev):

   -87.4221 -47.8276 -47.7978 -47.7976   3.2928  12.4154  12.5129  13.9112
    13.9926  14.1557  17.6001  18.2814  19.1048  23.4222  27.0639

          k = 0.1458 0.1458 0.1379 (  2905 PWs)   bands (ev):

   -87.4219 -47.8309 -47.7976 -47.7973   3.6254  12.3175  12.4941  13.6644
    13.9440  14.0624  17.2767  18.0260  18.6525  25.9241  27.0391

          k = 0.1458 0.1458 0.2758 (  2903 PWs)   bands (ev):

   -87.4215 -47.8385 -47.7969 -47.7967   4.5901  10.9803  12.6840  13.5524
    13.5945  14.1452  15.6057  19.0514  19.5556  25.9479  26.3965

          k = 0.1458 0.1458 0.4137 (  2897 PWs)   bands (ev):

   -87.4211 -47.8446 -47.7964 -47.7962   5.9765   8.9661  12.8698  13.2654
    13.7088  14.2024  15.0491  20.2158  20.8014  23.9984  24.0213

          k = 0.1458 0.2915 0.0000 (  2892 PWs)   bands (ev):

   -87.4211 -47.8264 -47.8122 -47.7965   4.4136  11.2541  12.7696  13.5086
    13.6641  14.1690  15.8065  19.1433  20.5352  23.7024  27.0863

          k = 0.1458 0.2915 0.1379 (  2903 PWs)   bands (ev):

   -87.4209 -47.8297 -47.8119 -47.7962   4.7284  11.4234  12.5737  13.4254
    13.6827  14.0171  16.0367  18.4439  19.4525  25.6099  26.2712

          k = 0.1458 0.2915 0.2758 (  2903 PWs)   bands (ev):

   -87.4205 -47.8371 -47.8112 -47.7956   5.6314  11.5146  11.8204  13.4777
    13.6169  13.9355  15.9731  17.0557  20.2260  22.7855  27.0986

          k = 0.1458 0.2915 0.4137 (  2907 PWs)   bands (ev):

   -87.4201 -47.8431 -47.8106 -47.7951   6.8712   9.9044  12.1227  13.3429
    13.8735  13.9901  15.1426  17.8533  20.4613  21.1959  25.1605

          k = 0.1458 0.4373 0.0000 (  2889 PWs)   bands (ev):

   -87.4203 -47.8254 -47.8238 -47.7955   6.1214   8.9434  13.1010  13.2091
    13.4076  14.2286  15.3747  20.5756  22.4020  23.5393  24.9195

          k = 0.1458 0.4373 0.1379 (  2899 PWs)   bands (ev):

   -87.4201 -47.8287 -47.8235 -47.7952   6.3918   9.2229  12.7146  13.3013
    13.6483  14.0840  15.4035  19.9267  20.8616  23.0517  24.1796

          k = 0.1458 0.4373 0.2758 (  2897 PWs)   bands (ev):

   -87.4197 -47.8360 -47.8227 -47.7946   7.1403   9.9878  12.0049  13.3195
    13.8494  13.9888  15.4015  17.6170  20.0121  21.4087  25.1545

          k = 0.1458 0.4373 0.4137 (  2907 PWs)   bands (ev):

   -87.4193 -47.8420 -47.8221 -47.7941   8.0507  10.8570  11.1617  12.9669
    14.0792  14.1432  15.0891  16.7355  17.9482  22.0553  26.1666

          k = 0.2915 0.2915 0.0000 (  2902 PWs)   bands (ev):

   -87.4201 -47.8251 -47.8110 -47.8107   5.4754  11.6485  11.9908  13.5593
    13.5673  13.8452  15.7790  17.3604  21.6255  22.9051  25.2401

          k = 0.2915 0.2915 0.1379 (  2891 PWs)   bands (ev):

   -87.4199 -47.8284 -47.8107 -47.8104   5.7730  11.8101  11.9348  13.3453
    13.6498  13.8086  16.1615  17.4211  19.3897  23.3740  26.4481

          k = 0.2915 0.2915 0.2758 (  2907 PWs)   bands (ev):

   -87.4195 -47.8358 -47.8100 -47.8097   6.6180  11.6623  11.8058  13.2606
    13.7927  13.8509  16.9357  17.1754  17.5958  23.6920  23.7509

          k = 0.2915 0.2915 0.4137 (  2906 PWs)   bands (ev):

   -87.4192 -47.8417 -47.8095 -47.8092   7.7410  10.5556  11.7023  13.7105
    13.8158  14.3050  15.4636  17.7529  18.6481  21.1367  21.8893

          k = 0.2915 0.4373 0.0000 (  2889 PWs)   bands (ev):

   -87.4193 -47.8241 -47.8223 -47.8098   7.0296   9.8846  12.4793  13.3939
    13.3988  13.8502  15.3126  18.0645  20.4694  22.8493  25.9032

          k = 0.2915 0.4373 0.1379 (  2900 PWs)   bands (ev):

   -87.4191 -47.8274 -47.8220 -47.8095   7.2896  10.1066  12.1842  13.3912
    13.7555  13.8630  15.4280  18.1119  20.5586  20.8276  24.1882

          k = 0.2915 0.4373 0.2758 (  2904 PWs)   bands (ev):

   -87.4187 -47.8347 -47.8213 -47.8088   8.0097  10.6065  11.6593  13.5936
    13.8334  14.3773  15.7148  17.6048  18.7031  20.9703  21.6963

          k = 0.2915 0.4373 0.4137 (  2915 PWs)   bands (ev):

   -87.4184 -47.8406 -47.8207 -47.8083   8.8994  10.9538  11.0429  13.7288
    14.5337  14.7187  15.7339  16.2469  18.1971  19.6487  22.6248

          k = 0.4373 0.4373 0.0000 (  2894 PWs)   bands (ev):

   -87.4185 -47.8231 -47.8212 -47.8211   8.2058  10.9842  11.5210  13.0197
    13.5455  13.5936  15.1471  17.1098  18.2691  23.1832  27.6008

          k = 0.4373 0.4373 0.1379 (  2900 PWs)   bands (ev):

   -87.4183 -47.8264 -47.8209 -47.8208   8.4605  11.0559  11.3314  13.0227
    13.9760  13.9924  15.2341  16.9388  18.3527  21.5159  25.3512

          k = 0.4373 0.4373 0.2758 (  2915 PWs)   bands (ev):

   -87.4179 -47.8337 -47.8202 -47.8201   9.1583  11.0282  11.0553  13.6588
    14.6168  14.7060  15.8099  16.2421  18.3426  19.7679  22.3745

          k = 0.4373 0.4373 0.4137 (  2921 PWs)   bands (ev):

   -87.4176 -47.8395 -47.8196 -47.8195   9.9907  10.8452  10.8993  14.6817
    14.8067  15.0799  15.7206  17.2207  17.2995  19.6182  19.8876

     the Fermi energy is    16.6052 ev

!    total energy              =    -344.08561493 Ry
     estimated scf accuracy    <          8.2E-10 Ry
     smearing contrib. (-TS)   =       0.00189565 Ry
     internal energy E=F+TS    =    -344.08751058 Ry

     The total energy is F=E-TS. E is the sum of the following terms:
     one-electron contribution =    -220.00685887 Ry
     hartree contribution      =     123.31878922 Ry
     xc contribution           =     -46.15221359 Ry
     ewald contribution        =    -201.24722734 Ry

     convergence has been achieved in   3 iterations

     Forces acting on atoms (cartesian axes, Ry/au):

     atom    1 type  1   force =     0.00000000    0.00000000    0.00000000
     atom    2 type  2   force =     0.00000000    0.00000000    0.00000000

     Total force =     0.000000     Total SCF correction =     0.000000


     Computing stress (Cartesian axis) and pressure

          total   stress  (Ry/bohr**3)                   (kbar)     P=        5.94
   0.00006361   0.00000000   0.00000000            9.36        0.00        0.00
   0.00000000   0.00006361   0.00000000            0.00        9.36        0.00
   0.00000000   0.00000000  -0.00000603            0.00        0.00       -0.89

     Energy error            =      1.8E-07 Ry
     Gradient error          =      0.0E+00 Ry/Bohr
     Cell gradient error     =      8.9E-01 kbar

     number of scf cycles    =   5
     number of bfgs steps    =   4

     enthalpy           old  =    -344.0856151134 Ry
     enthalpy           new  =    -344.0856149311 Ry

     CASE: enthalpy          _new > enthalpy          _old

     new trust radius        =       0.0003849295 bohr
     new conv_thr            =       0.0000000100 Ry

     new unit-cell volume =    154.31725 a.u.^3 (    22.86746 Ang^3 )
     density =      6.30152 g/cm^3

CELL_PARAMETERS (alat=  5.37330365)
   0.980000000   0.000000000   0.000000000
   0.000000000   0.980000000   0.000000000
   0.000000000   0.000000000   1.035710016

ATOMIC_POSITIONS (crystal)
Si               0.0000000000        0.0000000000        0.0000000000
Ni               0.5000000000        0.5000000000        0.5000000000



     Writing config-only to output data dir ./tmp/SiNi-relax.save/ :
     XML data file
     NEW-OLD atomic charge density approx. for the potential
     New effective cutoffs (rho, wfc):  439.33  109.98

     total cpu time spent up to now is       54.6 secs

     Self-consistent Calculation

     iteration #  1     ecut=   110.00 Ry     beta= 0.70
     Davidson diagonalization with overlap
     ethr =  1.00E-06,  avg # of iterations =  2.0

     Threshold (ethr) on eigenvalues was too large:
     Diagonalizing with lowered threshold

     Davidson diagonalization with overlap
     ethr =  3.15E-10,  avg # of iterations =  4.0

     total cpu time spent up to now is       58.0 secs

     total energy              =    -344.08561509 Ry
     estimated scf accuracy    <       0.00000002 Ry

     iteration #  2     ecut=   110.00 Ry     beta= 0.70
     Davidson diagonalization with overlap
     ethr =  1.12E-10,  avg # of iterations =  2.5

     total cpu time spent up to now is       59.8 secs

     total energy              =    -344.08561508 Ry
     estimated scf accuracy    <       0.00000021 Ry

     iteration #  3     ecut=   110.00 Ry     beta= 0.70
     Davidson diagonalization with overlap
     ethr =  1.12E-10,  avg # of iterations =  2.1

     total cpu time spent up to now is       61.4 secs

     End of self-consistent calculation

          k = 0.0000 0.0000 0.0000 (  2929 PWs)   bands (ev):

   -87.4178 -47.8234 -47.7867 -47.7867   2.5257  12.4617  12.5512  14.2977
    14.2977  14.4696  17.8856  19.7051  19.7051  23.0200  23.5296

          k = 0.0000 0.0000 0.1379 (  2902 PWs)   bands (ev):

   -87.4176 -47.8268 -47.7864 -47.7864   2.8691  12.1132  12.6380  14.1151
    14.1151  14.4847  16.3195  20.2117  20.2117  23.4662  24.9326

          k = 0.0000 0.0000 0.2759 (  2918 PWs)   bands (ev):

   -87.4172 -47.8344 -47.7859 -47.7859   3.8704  10.5058  12.8423  13.7647
    13.7647  14.5188  15.1153  21.5321  21.5321  23.3045  26.5416

          k = 0.0000 0.0000 0.4138 (  2902 PWs)   bands (ev):

   -87.4168 -47.8406 -47.7854 -47.7854   5.3465   8.2776  13.0164  13.5248
    13.5248  14.5463  14.9741  23.1526  23.2733  23.2733  26.4609

          k = 0.0000 0.1458 0.0000 (  2901 PWs)   bands (ev):

   -87.4173 -47.8228 -47.7932 -47.7862   2.9134  12.3449  12.6002  13.9841
    14.2544  14.3220  17.4858  18.5392  20.2519  23.0672  24.8740

          k = 0.0000 0.1458 0.1379 (  2915 PWs)   bands (ev):

   -87.4171 -47.8262 -47.7929 -47.7859   3.2515  12.2300  12.5174  13.7639
    14.1276  14.3077  16.8110  17.9360  20.7156  24.3092  26.0372

          k = 0.0000 0.1458 0.2759 (  2906 PWs)   bands (ev):

   -87.4167 -47.8338 -47.7923 -47.7853   4.2348  10.7554  12.7385  13.5201
    13.8114  14.3517  15.3401  18.9477  21.9304  24.3940  26.6358

          k = 0.0000 0.1458 0.4138 (  2894 PWs)   bands (ev):

   -87.4164 -47.8399 -47.7918 -47.7849   5.6659   8.6310  13.0219  13.3065
    13.5875  14.3901  14.9992  20.1818  23.4517  23.4768  25.4048

          k = 0.0000 0.2915 0.0000 (  2878 PWs)   bands (ev):

   -87.4163 -47.8216 -47.8077 -47.7850   4.0511  11.0349  12.8651  13.4604
    13.8482  14.3772  15.6385  20.1041  21.6690  23.0659  25.9736

          k = 0.0000 0.2915 0.1379 (  2904 PWs)   bands (ev):

   -87.4162 -47.8249 -47.8074 -47.7847   4.3714  11.2229  12.5910  13.3823
    13.8783  14.2487  15.7994  18.1102  22.0297  24.2710  26.2639

          k = 0.0000 0.2915 0.2759 (  2903 PWs)   bands (ev):

   -87.4157 -47.8325 -47.8067 -47.7842   5.2923  11.3159  11.7863  13.3667
    13.8846  14.0484  15.5683  16.9675  22.3656  22.9434  26.1168

          k = 0.0000 0.2915 0.4138 (  2900 PWs)   bands (ev):

   -87.4154 -47.8385 -47.8061 -47.7837   6.5688   9.6304  12.2717  13.2304
    13.7321  14.0674  15.0271  17.7484  20.1200  23.9330  26.6894

          k = 0.0000 0.4373 0.0000 (  2898 PWs)   bands (ev):

   -87.4155 -47.8206 -47.8194 -47.7841   5.8022   8.6125  13.0946  13.1340
    13.5731  14.4219  15.3817  22.1775  23.0481  23.5866  25.1218

          k = 0.0000 0.4373 0.1379 (  2891 PWs)   bands (ev):

   -87.4154 -47.8239 -47.8190 -47.7838   6.0767   8.9040  12.8465  13.1965
    13.6208  14.3017  15.3709  19.6639  22.5382  23.7567  25.4283

          k = 0.0000 0.4373 0.2759 (  2905 PWs)   bands (ev):

   -87.4149 -47.8313 -47.8183 -47.7832   6.8357   9.7231  12.1408  13.2010
    13.7306  14.0494  15.2614  17.5176  19.6951  24.0984  26.9128

          k = 0.0000 0.4373 0.4138 (  2902 PWs)   bands (ev):

   -87.4146 -47.8373 -47.8176 -47.7827   7.7519  10.7318  11.2403  12.8248
    13.8209  13.8626  14.9872  16.8360  17.8053  24.3552  28.3468

          k = 0.1458 0.1458 0.0000 (  2907 PWs)   bands (ev):

   -87.4169 -47.8223 -47.7928 -47.7925   3.2961  12.4191  12.5172  13.9172
    13.9969  14.1612  17.6048  18.2855  19.1166  23.4330  27.0684

          k = 0.1458 0.1458 0.1379 (  2905 PWs)   bands (ev):

   -87.4167 -47.8256 -47.7925 -47.7922   3.6289  12.3224  12.4980  13.6698
    13.9492  14.0668  17.2861  18.0310  18.6573  25.9358  27.0439

          k = 0.1458 0.1458 0.2759 (  2903 PWs)   bands (ev):

   -87.4163 -47.8332 -47.7918 -47.7916   4.5944  10.9861  12.6881  13.5572
    13.5993  14.1498  15.6131  19.0572  19.5609  25.9541  26.4042

          k = 0.1458 0.1458 0.4138 (  2897 PWs)   bands (ev):

   -87.4159 -47.8393 -47.7913 -47.7911   5.9821   8.9709  12.8740  13.2701
    13.7134  14.2070  15.0559  20.2226  20.8081  24.0036  24.0271

          k = 0.1458 0.2915 0.0000 (  2892 PWs)   bands (ev):

   -87.4159 -47.8210 -47.8071 -47.7914   4.4169  11.2575  12.7737  13.5146
    13.6682  14.1745  15.8116  19.1478  20.5469  23.7123  27.0916

          k = 0.1458 0.2915 0.1379 (  2903 PWs)   bands (ev):

   -87.4157 -47.8244 -47.8068 -47.7911   4.7320  11.4269  12.5785  13.4308
    13.6869  14.0223  16.0419  18.4534  19.4576  25.6186  26.2808

          k = 0.1458 0.2915 0.2759 (  2903 PWs)   bands (ev):

   -87.4153 -47.8319 -47.8061 -47.7905   5.6357  11.5200  11.8244  13.4826
    13.6214  13.9401  15.9797  17.0625  20.2316  22.7934  27.1057

          k = 0.1458 0.2915 0.4138 (  2907 PWs)   bands (ev):

   -87.4149 -47.8379 -47.8055 -47.7900   6.8767   9.9090  12.1270  13.3476
    13.8781  13.9948  15.1492  17.8603  20.4673  21.2027  25.1660

          k = 0.1458 0.4373 0.0000 (  2889 PWs)   bands (ev):

   -87.4151 -47.8200 -47.8187 -47.7904   6.1246   8.9468  13.1052  13.2152
    13.4117  14.2340  15.3797  20.5803  22.4136  23.5448  24.9284

          k = 0.1458 0.4373 0.1379 (  2899 PWs)   bands (ev):

   -87.4149 -47.8233 -47.8184 -47.7901   6.3952   9.2265  12.7197  13.3059
    13.6529  14.0892  15.4085  19.9359  20.8670  23.0620  24.1843

          k = 0.1458 0.4373 0.2759 (  2897 PWs)   bands (ev):

   -87.4145 -47.8308 -47.8176 -47.7895   7.1444   9.9920  12.0098  13.3243
    13.8541  13.9935  15.4068  17.6251  20.0205  21.4144  25.1601

          k = 0.1458 0.4373 0.4138 (  2907 PWs)   bands (ev):

   -87.4141 -47.8367 -47.8170 -47.7890   8.0558  10.8617  11.1660  12.9715
    14.0840  14.1478  15.0951  16.7427  17.9549  22.0619  26.1729

          k = 0.2915 0.2915 0.0000 (  2902 PWs)   bands (ev):

   -87.4149 -47.8198 -47.8060 -47.8056   5.4786  11.6519  11.9942  13.5634
    13.5733  13.8507  15.7841  17.3656  21.6371  22.9103  25.2507

          k = 0.2915 0.2915 0.1379 (  2891 PWs)   bands (ev):

   -87.4147 -47.8231 -47.8056 -47.8053   5.7764  11.8138  11.9384  13.3511
    13.6541  13.8138  16.1669  17.4264  19.3994  23.3790  26.4584

          k = 0.2915 0.2915 0.2759 (  2907 PWs)   bands (ev):

   -87.4143 -47.8305 -47.8049 -47.8046   6.6221  11.6669  11.8096  13.2655
    13.7976  13.8555  16.9431  17.1813  17.6020  23.6999  23.7587

          k = 0.2915 0.2915 0.4138 (  2906 PWs)   bands (ev):

   -87.4140 -47.8364 -47.8044 -47.8041   7.7462  10.5598  11.7063  13.7149
    13.8206  14.3104  15.4702  17.7597  18.6549  21.1428  21.8952

          k = 0.2915 0.4373 0.0000 (  2889 PWs)   bands (ev):

   -87.4141 -47.8188 -47.8173 -47.8047   7.0327   9.8880  12.4828  13.3980
    13.4047  13.8557  15.3176  18.0699  20.4740  22.8609  25.9141

          k = 0.2915 0.4373 0.1379 (  2900 PWs)   bands (ev):

   -87.4139 -47.8221 -47.8169 -47.8044   7.2928  10.1102  12.1883  13.3958
    13.7605  13.8683  15.4332  18.1177  20.5667  20.8337  24.1986

          k = 0.2915 0.4373 0.2759 (  2904 PWs)   bands (ev):

   -87.4135 -47.8294 -47.8162 -47.8037   8.0136  10.6105  11.6635  13.5986
    13.8382  14.3823  15.7202  17.6125  18.7094  20.9778  21.7026

          k = 0.2915 0.4373 0.4138 (  2915 PWs)   bands (ev):

   -87.4132 -47.8353 -47.8156 -47.8032   8.9042  10.9582  11.0468  13.7334
    14.5393  14.7236  15.7398  16.2539  18.2033  19.6559  22.6317

          k = 0.4373 0.4373 0.0000 (  2894 PWs)   bands (ev):

   -87.4133 -47.8178 -47.8161 -47.8160   8.2086  10.9876  11.5245  13.0235
    13.5513  13.5993  15.1520  17.1158  18.2737  23.1949  27.6116

          k = 0.4373 0.4373 0.1379 (  2900 PWs)   bands (ev):

   -87.4131 -47.8211 -47.8158 -47.8157   8.4635  11.0596  11.3351  13.0271
    13.9812  13.9978  15.2391  16.9451  18.3575  21.5250  25.3616

          k = 0.4373 0.4373 0.2759 (  2915 PWs)   bands (ev):

   -87.4127 -47.8284 -47.8151 -47.8150   9.1618  11.0321  11.0592  13.6638
    14.6218  14.7111  15.8153  16.2493  18.3482  19.7745  22.3826

          k = 0.4373 0.4373 0.4138 (  2921 PWs)   bands (ev):

   -87.4124 -47.8342 -47.8145 -47.8145   9.9950  10.8493  10.9030  14.6873
    14.8116  15.0869  15.7260  17.2266  17.3051  19.6256  19.8940

     the Fermi energy is    16.6126 ev

!    total energy              =    -344.08561511 Ry
     estimated scf accuracy    <          3.3E-10 Ry
     smearing contrib. (-TS)   =       0.00189114 Ry
     internal energy E=F+TS    =    -344.08750624 Ry

     The total energy is F=E-TS. E is the sum of the following terms:
     one-electron contribution =    -219.97226799 Ry
     hartree contribution      =     123.30579691 Ry
     xc contribution           =     -46.15266243 Ry
     ewald contribution        =    -201.26837275 Ry

     convergence has been achieved in   3 iterations

     Forces acting on atoms (cartesian axes, Ry/au):

     atom    1 type  1   force =     0.00000000    0.00000000    0.00000000
     atom    2 type  2   force =     0.00000000    0.00000000    0.00000000

     Total force =     0.000000     Total SCF correction =     0.000000


     Computing stress (Cartesian axis) and pressure

          total   stress  (Ry/bohr**3)                   (kbar)     P=        6.52
   0.00006743   0.00000000   0.00000000            9.92        0.00        0.00
   0.00000000   0.00006743   0.00000000            0.00        9.92        0.00
   0.00000000   0.00000000  -0.00000185            0.00        0.00       -0.27

     Energy error            =      7.7E-09 Ry
     Gradient error          =      0.0E+00 Ry/Bohr
     Cell gradient error     =      2.7E-01 kbar

     bfgs converged in   6 scf cycles and   4 bfgs steps
     (criteria: energy <  1.0E-04 Ry, force <  1.0E-03 Ry/Bohr, cell <  5.0E-01 kbar)

     End of BFGS Geometry Optimization

     Final enthalpy           =    -344.0856151057 Ry

     File ./tmp/SiNi-relax.bfgs deleted, as requested
Begin final coordinates
     new unit-cell volume =    154.31725 a.u.^3 (    22.86746 Ang^3 )
     density =      6.30152 g/cm^3

CELL_PARAMETERS (alat=  5.37330365)
[...]
               b(1) = (  1.020408  0.000000  0.000000 )  
               b(2) = (  0.000000  1.020408  0.000000 )  
               b(3) = (  0.000000  0.000000  0.965521 )  


     PseudoPot. # 1 for Si read from file:
     ./PSEUDO/Si.upf
     MD5 check sum: 02fab3f35e82123ef5bf1cb05d5b1a5e
     Pseudo is Norm-conserving + core correction, Zval =  4.0
     Generated using ONCVPSP code by D. R. Hamann
     Using radial grid of 1510 points,  6 beta functions with: 
                l(1) =   0
                l(2) =   0
                l(3) =   1
                l(4) =   1
                l(5) =   2
                l(6) =   2

     PseudoPot. # 2 for Ni read from file:
     ./PSEUDO/Ni.upf
     MD5 check sum: 2b0a79d100e227970886d6963e34175b
     Pseudo is Norm-conserving + core correction, Zval = 18.0
     Generated using ONCVPSP code by D. R. Hamann
     Using radial grid of 1372 points,  6 beta functions with: 
                l(1) =   0
                l(2) =   0
                l(3) =   1
                l(4) =   1
                l(5) =   2
                l(6) =   2

     atomic species   valence    mass     pseudopotential
     Si                4.00    28.08550     Si( 1.00)
     Ni               18.00    58.69340     Ni( 1.00)

     16 Sym. Ops., with inversion, found



   Cartesian axes

     site n.     atom                  positions (alat units)
         1        Si     tau(   1) = (   0.0000000   0.0000000   0.0000000  )
         2        Ni     tau(   2) = (   0.4900000   0.4900000   0.5178550  )

     number of k points=    40  Methfessel-Paxton smearing, width (Ry)=  0.0400
                       cart. coord. in units 2pi/alat
        k(    1) = (   0.0000000   0.0000000   0.0000000), wk =   0.0058309
        k(    2) = (   0.0000000   0.0000000   0.1379316), wk =   0.0116618
        k(    3) = (   0.0000000   0.0000000   0.2758632), wk =   0.0116618
        k(    4) = (   0.0000000   0.0000000   0.4137948), wk =   0.0116618
        k(    5) = (   0.0000000   0.1457726   0.0000000), wk =   0.0233236
        k(    6) = (   0.0000000   0.1457726   0.1379316), wk =   0.0466472
        k(    7) = (   0.0000000   0.1457726   0.2758632), wk =   0.0466472
        k(    8) = (   0.0000000   0.1457726   0.4137948), wk =   0.0466472
        k(    9) = (   0.0000000   0.2915452   0.0000000), wk =   0.0233236
        k(   10) = (   0.0000000   0.2915452   0.1379316), wk =   0.0466472
        k(   11) = (   0.0000000   0.2915452   0.2758632), wk =   0.0466472
        k(   12) = (   0.0000000   0.2915452   0.4137948), wk =   0.0466472
        k(   13) = (   0.0000000   0.4373178   0.0000000), wk =   0.0233236
        k(   14) = (   0.0000000   0.4373178   0.1379316), wk =   0.0466472
        k(   15) = (   0.0000000   0.4373178   0.2758632), wk =   0.0466472
        k(   16) = (   0.0000000   0.4373178   0.4137948), wk =   0.0466472
        k(   17) = (   0.1457726   0.1457726   0.0000000), wk =   0.0233236
        k(   18) = (   0.1457726   0.1457726   0.1379316), wk =   0.0466472
        k(   19) = (   0.1457726   0.1457726   0.2758632), wk =   0.0466472
        k(   20) = (   0.1457726   0.1457726   0.4137948), wk =   0.0466472
        k(   21) = (   0.1457726   0.2915452   0.0000000), wk =   0.0466472
        k(   22) = (   0.1457726   0.2915452   0.1379316), wk =   0.0932945
        k(   23) = (   0.1457726   0.2915452   0.2758632), wk =   0.0932945
        k(   24) = (   0.1457726   0.2915452   0.4137948), wk =   0.0932945
        k(   25) = (   0.1457726   0.4373178   0.0000000), wk =   0.0466472
        k(   26) = (   0.1457726   0.4373178   0.1379316), wk =   0.0932945
        k(   27) = (   0.1457726   0.4373178   0.2758632), wk =   0.0932945
        k(   28) = (   0.1457726   0.4373178   0.4137948), wk =   0.0932945
        k(   29) = (   0.2915452   0.2915452   0.0000000), wk =   0.0233236
        k(   30) = (   0.2915452   0.2915452   0.1379316), wk =   0.0466472
        k(   31) = (   0.2915452   0.2915452   0.2758632), wk =   0.0466472
        k(   32) = (   0.2915452   0.2915452   0.4137948), wk =   0.0466472
        k(   33) = (   0.2915452   0.4373178   0.0000000), wk =   0.0466472
        k(   34) = (   0.2915452   0.4373178   0.1379316), wk =   0.0932945
        k(   35) = (   0.2915452   0.4373178   0.2758632), wk =   0.0932945
        k(   36) = (   0.2915452   0.4373178   0.4137948), wk =   0.0932945
        k(   37) = (   0.4373178   0.4373178   0.0000000), wk =   0.0233236
        k(   38) = (   0.4373178   0.4373178   0.1379316), wk =   0.0466472
        k(   39) = (   0.4373178   0.4373178   0.2758632), wk =   0.0466472
        k(   40) = (   0.4373178   0.4373178   0.4137948), wk =   0.0466472

     Dense  grid:    24105 G-vectors     FFT dimensions: (  36,  36,  40)

     Estimated max dynamical RAM per process >      54.07 MB

     Initial potential from superposition of free atoms

     starting charge      21.9992, renormalised to      22.0000
     Starting wfcs are   14 randomized atomic wfcs +    1 random wfcs

     total cpu time spent up to now is       63.4 secs

     Self-consistent Calculation

     iteration #  1     ecut=   110.00 Ry     beta= 0.70
     Davidson diagonalization with overlap
     c_bands:  1 eigenvalues not converged
     ethr =  1.00E-06,  avg # of iterations = 12.8

     total cpu time spent up to now is       68.2 secs

     total energy              =    -343.95972107 Ry
     estimated scf accuracy    <       0.19982444 Ry

     iteration #  2     ecut=   110.00 Ry     beta= 0.70
     Davidson diagonalization with overlap
     ethr =  9.08E-04,  avg # of iterations =  2.7

     total cpu time spent up to now is       70.3 secs

     total energy              =    -343.73309092 Ry
     estimated scf accuracy    <       2.69486973 Ry

     iteration #  3     ecut=   110.00 Ry     beta= 0.70
     Davidson diagonalization with overlap
     ethr =  9.08E-04,  avg # of iterations =  2.6

     total cpu time spent up to now is       72.2 secs

     total energy              =    -344.08464731 Ry
     estimated scf accuracy    <       0.00740153 Ry

     iteration #  4     ecut=   110.00 Ry     beta= 0.70
     Davidson diagonalization with overlap
     ethr =  3.36E-05,  avg # of iterations =  1.9

     total cpu time spent up to now is       73.7 secs

     total energy              =    -344.08556312 Ry
     estimated scf accuracy    <       0.00055995 Ry

     iteration #  5     ecut=   110.00 Ry     beta= 0.70
     Davidson diagonalization with overlap
     ethr =  2.55E-06,  avg # of iterations =  2.0

     total cpu time spent up to now is       75.3 secs

     total energy              =    -344.08560883 Ry
     estimated scf accuracy    <       0.00004386 Ry

     iteration #  6     ecut=   110.00 Ry     beta= 0.70
     Davidson diagonalization with overlap
     ethr =  1.99E-07,  avg # of iterations =  2.0

     total cpu time spent up to now is       76.9 secs

     total energy              =    -344.08561970 Ry
     estimated scf accuracy    <       0.00001330 Ry

     iteration #  7     ecut=   110.00 Ry     beta= 0.70
     Davidson diagonalization with overlap
     ethr =  6.05E-08,  avg # of iterations =  1.1

     total cpu time spent up to now is       78.4 secs

     total energy              =    -344.08562052 Ry
     estimated scf accuracy    <       0.00000085 Ry

     iteration #  8     ecut=   110.00 Ry     beta= 0.70
     Davidson diagonalization with overlap
     ethr =  3.88E-09,  avg # of iterations =  2.5

     total cpu time spent up to now is       80.0 secs

     total energy              =    -344.08562075 Ry
     estimated scf accuracy    <       0.00000006 Ry

     iteration #  9     ecut=   110.00 Ry     beta= 0.70
     Davidson diagonalization with overlap
     ethr =  2.75E-10,  avg # of iterations =  1.8

     total cpu time spent up to now is       81.5 secs

     total energy              =    -344.08562074 Ry
     estimated scf accuracy    <       0.00000003 Ry

     iteration # 10     ecut=   110.00 Ry     beta= 0.70
     Davidson diagonalization with overlap
     ethr =  1.27E-10,  avg # of iterations =  2.0

     total cpu time spent up to now is       83.3 secs

     End of self-consistent calculation

          k = 0.0000 0.0000 0.0000 (  3011 PWs)   bands (ev):

   -87.4178 -47.8233 -47.7867 -47.7867   2.5257  12.4618  12.5512  14.2977
    14.2977  14.4695  17.8856  19.7051  19.7051  23.0200  23.5296

          k = 0.0000 0.0000 0.1379 (  3023 PWs)   bands (ev):

   -87.4176 -47.8267 -47.7865 -47.7865   2.8691  12.1132  12.6380  14.1151
    14.1151  14.4846  16.3195  20.2117  20.2117  23.4662  24.9326

          k = 0.0000 0.0000 0.2759 (  2987 PWs)   bands (ev):

   -87.4172 -47.8344 -47.7859 -47.7859   3.8704  10.5058  12.8423  13.7647
    13.7647  14.5188  15.1153  21.5321  21.5321  23.3045  26.5416

          k = 0.0000 0.0000 0.4138 (  3014 PWs)   bands (ev):

   -87.4168 -47.8405 -47.7854 -47.7854   5.3465   8.2776  13.0164  13.5248
    13.5248  14.5463  14.9741  23.1526  23.2734  23.2734  26.4609

          k = 0.0000 0.1458 0.0000 (  3021 PWs)   bands (ev):

   -87.4174 -47.8227 -47.7932 -47.7862   2.9134  12.3448  12.6002  13.9841
    14.2544  14.3221  17.4858  18.5392  20.2519  23.0672  24.8740

          k = 0.0000 0.1458 0.1379 (  3010 PWs)   bands (ev):

   -87.4172 -47.8261 -47.7929 -47.7859   3.2515  12.2300  12.5174  13.7639
    14.1277  14.3077  16.8110  17.9360  20.7156  24.3093  26.0372

          k = 0.0000 0.1458 0.2759 (  3007 PWs)   bands (ev):

   -87.4167 -47.8338 -47.7923 -47.7854   4.2348  10.7554  12.7385  13.5202
    13.8114  14.3517  15.3401  18.9477  21.9304  24.3940  26.6358

          k = 0.0000 0.1458 0.4138 (  3006 PWs)   bands (ev):

   -87.4164 -47.8399 -47.7918 -47.7849   5.6659   8.6310  13.0219  13.3065
    13.5876  14.3900  14.9992  20.1818  23.4517  23.4768  25.4048

          k = 0.0000 0.2915 0.0000 (  3012 PWs)   bands (ev):

   -87.4164 -47.8215 -47.8078 -47.7850   4.0511  11.0349  12.8651  13.4604
    13.8481  14.3772  15.6385  20.1041  21.6690  23.0659  25.9736

          k = 0.0000 0.2915 0.1379 (  2994 PWs)   bands (ev):

   -87.4162 -47.8248 -47.8074 -47.7848   4.3714  11.2229  12.5910  13.3823
    13.8783  14.2487  15.7994  18.1102  22.0297  24.2710  26.2639

          k = 0.0000 0.2915 0.2759 (  2999 PWs)   bands (ev):

   -87.4157 -47.8324 -47.8067 -47.7842   5.2923  11.3159  11.7863  13.3667
    13.8846  14.0484  15.5683  16.9675  22.3656  22.9434  26.1168

          k = 0.0000 0.2915 0.4138 (  3006 PWs)   bands (ev):

   -87.4154 -47.8384 -47.8062 -47.7837   6.5688   9.6304  12.2717  13.2304
    13.7321  14.0673  15.0272  17.7485  20.1200  23.9330  26.6894

          k = 0.0000 0.4373 0.0000 (  2986 PWs)   bands (ev):

   -87.4156 -47.8205 -47.8194 -47.7841   5.8022   8.6125  13.0946  13.1340
    13.5731  14.4220  15.3817  22.1775  23.0482  23.5866  25.1218

          k = 0.0000 0.4373 0.1379 (  2999 PWs)   bands (ev):

   -87.4154 -47.8238 -47.8191 -47.7838   6.0767   8.9039  12.8465  13.1966
    13.6208  14.3017  15.3709  19.6640  22.5382  23.7567  25.4283

          k = 0.0000 0.4373 0.2759 (  3009 PWs)   bands (ev):

   -87.4149 -47.8313 -47.8183 -47.7832   6.8357   9.7231  12.1408  13.2010
    13.7305  14.0495  15.2615  17.5177  19.6951  24.0984  26.9128

          k = 0.0000 0.4373 0.4138 (  3020 PWs)   bands (ev):

   -87.4146 -47.8372 -47.8177 -47.7828   7.7519  10.7318  11.2403  12.8248
    13.8209  13.8627  14.9872  16.8361  17.8053  24.3552  28.3468

          k = 0.1458 0.1458 0.0000 (  3005 PWs)   bands (ev):

   -87.4169 -47.8222 -47.7928 -47.7925   3.2960  12.4191  12.5172  13.9172
    13.9968  14.1612  17.6048  18.2855  19.1166  23.4330  27.0684

          k = 0.1458 0.1458 0.1379 (  3002 PWs)   bands (ev):

   -87.4167 -47.8256 -47.7925 -47.7923   3.6289  12.3224  12.4980  13.6698
    13.9492  14.0668  17.2861  18.0310  18.6573  25.9358  27.0439

          k = 0.1458 0.1458 0.2759 (  3002 PWs)   bands (ev):

   -87.4163 -47.8331 -47.7919 -47.7917   4.5944  10.9862  12.6881  13.5572
    13.5993  14.1498  15.6131  19.0572  19.5609  25.9541  26.4042

          k = 0.1458 0.1458 0.4138 (  3006 PWs)   bands (ev):

   -87.4159 -47.8392 -47.7914 -47.7912   5.9821   8.9709  12.8740  13.2701
    13.7134  14.2070  15.0559  20.2226  20.8081  24.0036  24.0270

          k = 0.1458 0.2915 0.0000 (  3002 PWs)   bands (ev):

   -87.4159 -47.8210 -47.8072 -47.7914   4.4169  11.2575  12.7737  13.5147
    13.6681  14.1745  15.8116  19.1478  20.5469  23.7123  27.0916

          k = 0.1458 0.2915 0.1379 (  3000 PWs)   bands (ev):

   -87.4157 -47.8243 -47.8068 -47.7911   4.7320  11.4269  12.5785  13.4308
    13.6869  14.0223  16.0419  18.4534  19.4576  25.6186  26.2808

          k = 0.1458 0.2915 0.2759 (  3004 PWs)   bands (ev):

   -87.4153 -47.8318 -47.8061 -47.7905   5.6357  11.5200  11.8244  13.4826
    13.6214  13.9401  15.9798  17.0625  20.2316  22.7934  27.1058

          k = 0.1458 0.2915 0.4138 (  2998 PWs)   bands (ev):

   -87.4150 -47.8378 -47.8056 -47.7900   6.8767   9.9090  12.1270  13.3476
    13.8781  13.9948  15.1493  17.8603  20.4673  21.2027  25.1659

          k = 0.1458 0.4373 0.0000 (  3003 PWs)   bands (ev):

   -87.4151 -47.8200 -47.8188 -47.7904   6.1246   8.9468  13.1052  13.2153
    13.4116  14.2340  15.3797  20.5803  22.4136  23.5448  24.9284

          k = 0.1458 0.4373 0.1379 (  3004 PWs)   bands (ev):

   -87.4149 -47.8233 -47.8184 -47.7902   6.3952   9.2265  12.7197  13.3060
    13.6529  14.0892  15.4085  19.9359  20.8670  23.0620  24.1843

          k = 0.1458 0.4373 0.2759 (  3007 PWs)   bands (ev):

   -87.4145 -47.8307 -47.8176 -47.7896   7.1444   9.9920  12.0098  13.3243
    13.8541  13.9935  15.4068  17.6251  20.0205  21.4144  25.1601

          k = 0.1458 0.4373 0.4138 (  3004 PWs)   bands (ev):

   -87.4142 -47.8366 -47.8170 -47.7891   8.0558  10.8617  11.1660  12.9715
    14.0840  14.1478  15.0951  16.7427  17.9549  22.0619  26.1730

          k = 0.2915 0.2915 0.0000 (  3018 PWs)   bands (ev):

   -87.4149 -47.8197 -47.8060 -47.8056   5.4786  11.6519  11.9942  13.5634
    13.5733  13.8508  15.7841  17.3656  21.6372  22.9103  25.2507

          k = 0.2915 0.2915 0.1379 (  3013 PWs)   bands (ev):

   -87.4147 -47.8230 -47.8057 -47.8053   5.7764  11.8138  11.9384  13.3511
    13.6541  13.8139  16.1669  17.4264  19.3994  23.3790  26.4584

          k = 0.2915 0.2915 0.2759 (  3014 PWs)   bands (ev):

   -87.4143 -47.8304 -47.8050 -47.8046   6.6221  11.6669  11.8097  13.2655
    13.7976  13.8555  16.9432  17.1813  17.6020  23.7000  23.7587

          k = 0.2915 0.2915 0.4138 (  2991 PWs)   bands (ev):

   -87.4140 -47.8364 -47.8044 -47.8041   7.7463  10.5598  11.7063  13.7149
    13.8206  14.3104  15.4702  17.7597  18.6549  21.1428  21.8952

          k = 0.2915 0.4373 0.0000 (  3009 PWs)   bands (ev):

   -87.4141 -47.8187 -47.8173 -47.8047   7.0327   9.8880  12.4828  13.3980
    13.4047  13.8558  15.3176  18.0699  20.4740  22.8609  25.9140

          k = 0.2915 0.4373 0.1379 (  3015 PWs)   bands (ev):

   -87.4140 -47.8220 -47.8170 -47.8044   7.2928  10.1101  12.1883  13.3959
    13.7606  13.8683  15.4332  18.1176  20.5667  20.8337  24.1986

          k = 0.2915 0.4373 0.2759 (  3008 PWs)   bands (ev):

   -87.4135 -47.8294 -47.8162 -47.8037   8.0136  10.6105  11.6635  13.5986
    13.8382  14.3823  15.7202  17.6125  18.7094  20.9778  21.7026

          k = 0.2915 0.4373 0.4138 (  3011 PWs)   bands (ev):

   -87.4132 -47.8352 -47.8156 -47.8032   8.9042  10.9582  11.0467  13.7334
    14.5393  14.7236  15.7398  16.2539  18.2033  19.6559  22.6318

          k = 0.4373 0.4373 0.0000 (  3030 PWs)   bands (ev):

   -87.4134 -47.8177 -47.8161 -47.8161   8.2086  10.9876  11.5244  13.0235
    13.5513  13.5993  15.1520  17.1158  18.2737  23.1949  27.6116

          k = 0.4373 0.4373 0.1379 (  3023 PWs)   bands (ev):

   -87.4132 -47.8210 -47.8158 -47.8158   8.4635  11.0596  11.3351  13.0271
    13.9813  13.9978  15.2391  16.9451  18.3575  21.5250  25.3616

          k = 0.4373 0.4373 0.2759 (  3008 PWs)   bands (ev):

   -87.4127 -47.8283 -47.8151 -47.8150   9.1618  11.0322  11.0592  13.6638
    14.6218  14.7111  15.8153  16.2493  18.3482  19.7745  22.3474

          k = 0.4373 0.4373 0.4138 (  3006 PWs)   bands (ev):

   -87.4124 -47.8341 -47.8145 -47.8145   9.9950  10.8493  10.9030  14.6874
    14.8116  15.0869  15.7260  17.2266  17.3051  19.6256  19.8940

     the Fermi energy is    16.6127 ev

!    total energy              =    -344.08562075 Ry
     estimated scf accuracy    <          9.1E-10 Ry
     smearing contrib. (-TS)   =       0.00189113 Ry
     internal energy E=F+TS    =    -344.08751188 Ry

     The total energy is F=E-TS. E is the sum of the following terms:
     one-electron contribution =    -219.97203779 Ry
     hartree contribution      =     123.30551387 Ry
     xc contribution           =     -46.15261522 Ry
     ewald contribution        =    -201.26837275 Ry

     convergence has been achieved in  10 iterations

     Forces acting on atoms (cartesian axes, Ry/au):

     atom    1 type  1   force =     0.00000000    0.00000000    0.00000000
     atom    2 type  2   force =     0.00000000    0.00000000    0.00000000

     Total force =     0.000000     Total SCF correction =     0.000000


     Computing stress (Cartesian axis) and pressure

          total   stress  (Ry/bohr**3)                   (kbar)     P=        6.30
   0.00006601   0.00000000   0.00000000            9.71        0.00        0.00
   0.00000000   0.00006601   0.00000000            0.00        9.71        0.00
   0.00000000   0.00000000  -0.00000354            0.00        0.00       -0.52


     Writing all to output data dir ./tmp/SiNi-relax.save/ :
     XML data file, charge density, pseudopotentials, collected wavefunctions

     init_run     :      1.69s CPU      1.79s WALL (       2 calls)
     electrons    :     70.97s CPU     73.50s WALL (       7 calls)
     update_pot   :      0.07s CPU      0.07s WALL (       5 calls)
     forces       :      1.87s CPU      1.89s WALL (       7 calls)
     stress       :      7.23s CPU      7.31s WALL (       7 calls)

     Called by init_run:
     wfcinit      :      1.02s CPU      1.11s WALL (       2 calls)
     potinit      :      0.16s CPU      0.17s WALL (       2 calls)
     hinit0       :      0.47s CPU      0.48s WALL (       2 calls)

     Called by electrons:
     c_bands      :     63.88s CPU     66.01s WALL (      41 calls)
     sum_band     :      6.64s CPU      7.01s WALL (      41 calls)
     v_of_rho     :      0.45s CPU      0.48s WALL (      44 calls)
     mix_rho      :      0.05s CPU      0.06s WALL (      41 calls)

     Called by c_bands:
     init_us_2    :      2.10s CPU      2.23s WALL (    3920 calls)
     cegterg      :     60.40s CPU     62.44s WALL (    1640 calls)

     Called by *egterg:
     cdiaghg      :      0.82s CPU      0.87s WALL (    5909 calls)
     h_psi        :     43.37s CPU     45.16s WALL (    6349 calls)
     g_psi        :      0.35s CPU      0.37s WALL (    4629 calls)

     Called by h_psi:
     h_psi:calbec :      6.07s CPU      6.22s WALL (    6349 calls)
     vloc_psi     :     31.26s CPU     32.80s WALL (    6349 calls)
                                        0.00s GPU  (    6349 calls)
     add_vuspsi   :      5.75s CPU      5.86s WALL (    6349 calls)

     General routines
     calbec       :     12.19s CPU     12.43s WALL (   11109 calls)
     fft          :      0.19s CPU      0.20s WALL (     617 calls)
     ffts         :      0.01s CPU      0.01s WALL (      41 calls)
     fftw         :     31.72s CPU     33.92s WALL (  161332 calls)


     PWSCF        :   1m21.91s CPU   1m24.68s WALL


   This run was terminated on:  20:21:50   7Jan2026            

=------------------------------------------------------------------------------=
   JOB DONE.
=------------------------------------------------------------------------------=
