
     Program PWSCF v.7.5 starts on  7Jan2026 at 20:33: 1 

     This program is part of the open-source Quantum ESPRESSO suite
     for quantum simulation of materials; please cite
         "P. Giannozzi et al., J. Phys.:Condens. Matter 21 395502 (2009);
         "P. Giannozzi et al., J. Phys.:Condens. Matter 29 465901 (2017);
         "P. Giannozzi et al., J. Chem. Phys. 152 154105 (2020);
          URL http://www.quantum-espresso.org", 
     in publications or presentations arising from this work. More details at
     http://www.quantum-espresso.org/quote

     Serial version
     835 MiB available memory on the printing compute node when the environment starts

     Waiting for input...
     Reading input from standard input

     Current dimensions of program PWSCF are:
     Max number of different atomic species (ntypx) = 10
     Max number of k-points (npk) =  40000
     Max angular momentum in pseudopotentials (lmaxx) =  4
     Message from routine setup:
     using ibrav=0 with symmetry is DISCOURAGED, use correct ibrav instead


     G-vector sticks info
     --------------------
     sticks:   dense  smooth     PW     G-vecs:    dense   smooth      PW
     Sum         749     749    221                17887    17887    2895

     Using Slab Decomposition



     bravais-lattice index     =            0
     lattice parameter (alat)  =       5.3733  a.u.
     unit-cell volume          =     114.7416 (a.u.)^3
     number of atoms/cell      =            2
     number of atomic types    =            2
     number of electrons       =        22.00
     number of Kohn-Sham states=           15
     kinetic-energy cutoff     =     110.0000  Ry
     charge density cutoff     =     440.0000  Ry
     scf convergence threshold =      1.0E-06
     mixing beta               =       0.7000
     number of iterations used =            8  plain     mixing
     energy convergence thresh.=      1.0E-04
     force convergence thresh. =      1.0E-03
     press convergence thresh. =      5.0E-01
     Exchange-correlation= PBE
                           (   1   4   3   4   0   0   0)
     nstep                     =           50


     celldm(1)=   5.373304  celldm(2)=   0.000000  celldm(3)=   0.000000
     celldm(4)=   0.000000  celldm(5)=   0.000000  celldm(6)=   0.000000

     crystal axes: (cart. coord. in units of alat)
               a(1) = (   0.860000   0.000000   0.000000 )  
               a(2) = (   0.000000   0.860000   0.000000 )  
               a(3) = (   0.000000   0.000000   1.000000 )  

     reciprocal axes: (cart. coord. in units 2 pi/alat)
               b(1) = (  1.162791  0.000000  0.000000 )  
               b(2) = (  0.000000  1.162791  0.000000 )  
               b(3) = (  0.000000  0.000000  1.000000 )  


     PseudoPot. # 1 for Si read from file:
     ./PSEUDO/Si.upf
     MD5 check sum: 02fab3f35e82123ef5bf1cb05d5b1a5e
     Pseudo is Norm-conserving + core correction, Zval =  4.0
     Generated using ONCVPSP code by D. R. Hamann
     Using radial grid of 1510 points,  6 beta functions with: 
                l(1) =   0
                l(2) =   0
                l(3) =   1
                l(4) =   1
                l(5) =   2
                l(6) =   2

     PseudoPot. # 2 for Ni read from file:
     ./PSEUDO/Ni.upf
     MD5 check sum: 2b0a79d100e227970886d6963e34175b
     Pseudo is Norm-conserving + core correction, Zval = 18.0
     Generated using ONCVPSP code by D. R. Hamann
     Using radial grid of 1372 points,  6 beta functions with: 
                l(1) =   0
                l(2) =   0
                l(3) =   1
                l(4) =   1
                l(5) =   2
                l(6) =   2

     atomic species   valence    mass     pseudopotential
     Si                4.00    28.08550     Si( 1.00)
     Ni               18.00    58.69340     Ni( 1.00)

     16 Sym. Ops., with inversion, found



   Cartesian axes

     site n.     atom                  positions (alat units)
         1        Si     tau(   1) = (   0.0000000   0.0000000   0.0000000  )
         2        Ni     tau(   2) = (   0.4300000   0.4300000   0.5000000  )

     number of k points=    40  Methfessel-Paxton smearing, width (Ry)=  0.0400
                       cart. coord. in units 2pi/alat
        k(    1) = (   0.0000000   0.0000000   0.0000000), wk =   0.0058309
        k(    2) = (   0.0000000   0.0000000   0.1428571), wk =   0.0116618
        k(    3) = (   0.0000000   0.0000000   0.2857143), wk =   0.0116618
        k(    4) = (   0.0000000   0.0000000   0.4285714), wk =   0.0116618
        k(    5) = (   0.0000000   0.1661130   0.0000000), wk =   0.0233236
        k(    6) = (   0.0000000   0.1661130   0.1428571), wk =   0.0466472
        k(    7) = (   0.0000000   0.1661130   0.2857143), wk =   0.0466472
        k(    8) = (   0.0000000   0.1661130   0.4285714), wk =   0.0466472
        k(    9) = (   0.0000000   0.3322259   0.0000000), wk =   0.0233236
        k(   10) = (   0.0000000   0.3322259   0.1428571), wk =   0.0466472
        k(   11) = (   0.0000000   0.3322259   0.2857143), wk =   0.0466472
        k(   12) = (   0.0000000   0.3322259   0.4285714), wk =   0.0466472
        k(   13) = (   0.0000000   0.4983389   0.0000000), wk =   0.0233236
        k(   14) = (   0.0000000   0.4983389   0.1428571), wk =   0.0466472
        k(   15) = (   0.0000000   0.4983389   0.2857143), wk =   0.0466472
        k(   16) = (   0.0000000   0.4983389   0.4285714), wk =   0.0466472
        k(   17) = (   0.1661130   0.1661130   0.0000000), wk =   0.0233236
        k(   18) = (   0.1661130   0.1661130   0.1428571), wk =   0.0466472
        k(   19) = (   0.1661130   0.1661130   0.2857143), wk =   0.0466472
        k(   20) = (   0.1661130   0.1661130   0.4285714), wk =   0.0466472
        k(   21) = (   0.1661130   0.3322259   0.0000000), wk =   0.0466472
        k(   22) = (   0.1661130   0.3322259   0.1428571), wk =   0.0932945
        k(   23) = (   0.1661130   0.3322259   0.2857143), wk =   0.0932945
        k(   24) = (   0.1661130   0.3322259   0.4285714), wk =   0.0932945
        k(   25) = (   0.1661130   0.4983389   0.0000000), wk =   0.0466472
        k(   26) = (   0.1661130   0.4983389   0.1428571), wk =   0.0932945
        k(   27) = (   0.1661130   0.4983389   0.2857143), wk =   0.0932945
        k(   28) = (   0.1661130   0.4983389   0.4285714), wk =   0.0932945
        k(   29) = (   0.3322259   0.3322259   0.0000000), wk =   0.0233236
        k(   30) = (   0.3322259   0.3322259   0.1428571), wk =   0.0466472
        k(   31) = (   0.3322259   0.3322259   0.2857143), wk =   0.0466472
        k(   32) = (   0.3322259   0.3322259   0.4285714), wk =   0.0466472
        k(   33) = (   0.3322259   0.4983389   0.0000000), wk =   0.0466472
        k(   34) = (   0.3322259   0.4983389   0.1428571), wk =   0.0932945
        k(   35) = (   0.3322259   0.4983389   0.2857143), wk =   0.0932945
        k(   36) = (   0.3322259   0.4983389   0.4285714), wk =   0.0932945
        k(   37) = (   0.4983389   0.4983389   0.0000000), wk =   0.0233236
        k(   38) = (   0.4983389   0.4983389   0.1428571), wk =   0.0466472
        k(   39) = (   0.4983389   0.4983389   0.2857143), wk =   0.0466472
        k(   40) = (   0.4983389   0.4983389   0.4285714), wk =   0.0466472

     Dense  grid:    17887 G-vectors     FFT dimensions: (  32,  32,  36)

     Estimated max dynamical RAM per process >      41.55 MB

     Initial potential from superposition of free atoms

     starting charge      21.9992, renormalised to      22.0000
     Starting wfcs are   14 randomized atomic wfcs +    1 random wfcs

     total cpu time spent up to now is        1.1 secs

     Self-consistent Calculation

     iteration #  1     ecut=   110.00 Ry     beta= 0.70
     Davidson diagonalization with overlap
     ethr =  1.00E-02,  avg # of iterations =  3.8

     Threshold (ethr) on eigenvalues was too large:
     Diagonalizing with lowered threshold

     Davidson diagonalization with overlap
     ethr =  2.64E-04,  avg # of iterations =  2.0

     total cpu time spent up to now is        3.7 secs

     total energy              =    -343.95605433 Ry
     estimated scf accuracy    <       0.05489226 Ry

     iteration #  2     ecut=   110.00 Ry     beta= 0.70
     Davidson diagonalization with overlap
     ethr =  2.50E-04,  avg # of iterations =  2.3

     total cpu time spent up to now is        5.1 secs

     total energy              =    -343.94111043 Ry
     estimated scf accuracy    <       0.22799984 Ry

     iteration #  3     ecut=   110.00 Ry     beta= 0.70
     Davidson diagonalization with overlap
     ethr =  2.50E-04,  avg # of iterations =  2.0

     total cpu time spent up to now is        6.3 secs

     total energy              =    -343.98031299 Ry
     estimated scf accuracy    <       0.00235587 Ry

     iteration #  4     ecut=   110.00 Ry     beta= 0.70
     Davidson diagonalization with overlap
     ethr =  1.07E-05,  avg # of iterations =  2.0

     total cpu time spent up to now is        7.4 secs

     total energy              =    -343.98062299 Ry
     estimated scf accuracy    <       0.00006557 Ry

     iteration #  5     ecut=   110.00 Ry     beta= 0.70
     Davidson diagonalization with overlap
     ethr =  2.98E-07,  avg # of iterations =  2.7

     total cpu time spent up to now is        8.8 secs

     total energy              =    -343.98064091 Ry
     estimated scf accuracy    <       0.00000931 Ry

     iteration #  6     ecut=   110.00 Ry     beta= 0.70
     Davidson diagonalization with overlap
     ethr =  4.23E-08,  avg # of iterations =  1.8

     total cpu time spent up to now is        9.9 secs

     End of self-consistent calculation

          k = 0.0000 0.0000 0.0000 (  2225 PWs)   bands (ev):

   -81.6273 -42.1131 -41.9658 -41.9658   6.2631  16.9031  17.3313  20.0150
    20.0150  20.6403  22.7510  28.8677  28.8677  29.5545  30.9302

          k = 0.0000 0.0000 0.1429 (  2234 PWs)   bands (ev):

   -81.6269 -42.1194 -41.9654 -41.9654   6.6394  16.4029  17.4290  19.8507
    19.8507  20.6536  21.6373  29.4054  29.4054  30.6867  31.4550

          k = 0.0000 0.0000 0.2857 (  2242 PWs)   bands (ev):

   -81.6261 -42.1336 -41.9645 -41.9645   7.7291  14.6611  17.6599  19.5159
    19.5159  20.6505  20.6835  30.1207  30.8548  30.8548  34.5434

          k = 0.0000 0.0000 0.4286 (  2246 PWs)   bands (ev):

   -81.6254 -42.1450 -41.9638 -41.9638   9.3105  12.4049  17.8581  19.2743
    19.2743  20.4685  20.7077  29.6489  32.8843  32.8844  35.8023

          k = 0.0000 0.1661 0.0000 (  2215 PWs)   bands (ev):

   -81.6244 -42.1102 -41.9955 -41.9632   6.7757  17.0469  17.3412  19.2885
    20.0632  20.3443  23.8550  25.4644  29.5287  29.5641  33.5581

          k = 0.0000 0.1661 0.1429 (  2232 PWs)   bands (ev):

   -81.6240 -42.1164 -41.9950 -41.9628   7.1434  16.6350  17.4057  19.1088
    19.9021  20.3682  22.5035  25.9034  30.0384  31.3181  33.7732

          k = 0.0000 0.1661 0.2857 (  2235 PWs)   bands (ev):

   -81.6232 -42.1304 -41.9940 -41.9619   8.2035  15.0038  17.6750  18.9295
    19.5799  20.4104  21.0818  26.8559  31.4081  32.1733  35.4613

          k = 0.0000 0.1661 0.4286 (  2237 PWs)   bands (ev):

   -81.6225 -42.1416 -41.9931 -41.9612   9.7123  12.8759  17.9722  18.8011
    19.3471  20.4419  20.5531  27.7748  31.8402  33.2503  34.1659

          k = 0.0000 0.3322 0.0000 (  2233 PWs)   bands (ev):

   -81.6178 -42.1036 -42.0621 -41.9576   8.2726  16.2144  17.6999  18.3086
    19.7645  20.1731  22.6931  26.0203  29.3259  31.2590  35.5878

          k = 0.0000 0.3322 0.1429 (  2222 PWs)   bands (ev):

   -81.6175 -42.1096 -42.0615 -41.9572   8.6119  16.3789  17.2030  18.3698
    19.7819  20.0412  22.7003  24.4451  30.9175  31.6967  34.2202

          k = 0.0000 0.3322 0.2857 (  2231 PWs)   bands (ev):

   -81.6166 -42.1231 -42.0600 -41.9562   9.5720  15.8311  16.8412  18.4325
    19.7125  19.8742  21.5716  24.3133  29.8754  32.8218  34.7219

          k = 0.0000 0.3322 0.4286 (  2255 PWs)   bands (ev):

   -81.6160 -42.1338 -42.0588 -41.9555  10.8401  14.1955  17.3565  18.2933
    19.5147  19.9000  20.6986  25.3039  27.8762  34.0825  35.3198

          k = 0.0000 0.4983 0.0000 (  2242 PWs)   bands (ev):

   -81.6126 -42.1152 -42.0984 -41.9531  10.6237  13.5751  17.7471  18.1219
    19.3596  20.2628  22.1338  28.6610  29.0258  32.1549  33.7285

          k = 0.0000 0.4983 0.1429 (  2239 PWs)   bands (ev):

   -81.6122 -42.1145 -42.1042 -41.9526  10.9012  13.8086  17.5067  18.1941
    19.3877  20.1346  22.0394  26.3180  28.9139  33.0500  34.0550

          k = 0.0000 0.4983 0.2857 (  2237 PWs)   bands (ev):

   -81.6114 -42.1172 -42.1127 -41.9517  11.6181  14.4763  16.9625  18.1818
    19.4521  19.8623  21.5428  24.5089  26.6592  34.6674  35.4217

          k = 0.0000 0.4983 0.4286 (  2246 PWs)   bands (ev):

   -81.6107 -42.1276 -42.1113 -41.9509  12.3421  15.4320  16.2836  17.8391
    19.5058  19.6566  20.8001  24.1774  25.0057  35.0205  37.2706

          k = 0.1661 0.1661 0.0000 (  2227 PWs)   bands (ev):

   -81.6215 -42.1073 -41.9938 -41.9918   7.2801  17.2011  17.3815  19.1308
    19.7206  20.0017  24.7759  25.1851  26.9786  30.1969  36.3497

          k = 0.1661 0.1661 0.1429 (  2231 PWs)   bands (ev):

   -81.6211 -42.1134 -41.9933 -41.9914   7.6389  16.8212  17.4761  18.9979
    19.4831  20.0303  23.2455  25.6001  27.4949  32.4360  35.8422

          k = 0.1661 0.1661 0.2857 (  2236 PWs)   bands (ev):

   -81.6203 -42.1272 -41.9921 -41.9904   8.6687  15.3181  17.7281  18.9833
    19.0774  20.0877  21.5645  26.5735  28.5705  34.1009  35.6122

          k = 0.1661 0.1661 0.4286 (  2241 PWs)   bands (ev):

   -81.6196 -42.1382 -41.9912 -41.9896  10.1060  13.3262  18.0681  18.4969
    19.3901  20.1307  20.6999  27.5270  29.9974  32.4809  33.1348

          k = 0.1661 0.3322 0.0000 (  2237 PWs)   bands (ev):

   -81.6150 -42.1007 -42.0590 -41.9867   8.7501  16.4536  17.7520  18.4008
    19.4795  19.7229  22.8357  26.7763  27.6274  30.5470  36.2173

          k = 0.1661 0.3322 0.1429 (  2228 PWs)   bands (ev):

   -81.6146 -42.1067 -42.0583 -41.9862   9.0796  16.5934  17.3069  18.4880
    19.4329  19.6128  23.0552  24.8865  28.1556  32.5116  34.2984

          k = 0.1661 0.3322 0.2857 (  2238 PWs)   bands (ev):

   -81.6138 -42.1200 -42.0569 -41.9852  10.0072  16.0606  16.9234  18.6409
    19.2247  19.6573  22.1883  24.4411  28.9719  30.6764  36.2771

          k = 0.1661 0.3322 0.4286 (  2239 PWs)   bands (ev):

   -81.6131 -42.1306 -42.0558 -41.9843  11.2112  14.5497  17.1885  18.5099
    19.5711  19.7184  20.9188  25.5049  28.3558  29.9915  34.3663

          k = 0.1661 0.4983 0.0000 (  2239 PWs)   bands (ev):

   -81.6097 -42.1117 -42.0955 -41.9818  11.0434  13.9419  17.8812  18.2829
    19.0710  19.8362  22.1029  28.6688  29.3398  31.4417  32.4712

          k = 0.1661 0.4983 0.1429 (  2240 PWs)   bands (ev):

   -81.6093 -42.1110 -42.1013 -41.9813  11.3075  14.1717  17.4541  18.4376
    19.3016  19.6794  22.1015  26.7881  29.3224  30.4389  32.8934

          k = 0.1661 0.4983 0.2857 (  2237 PWs)   bands (ev):

   -81.6085 -42.1142 -42.1093 -41.9803  11.9902  14.8004  16.7692  18.4379
    19.4557  19.7406  21.8719  24.7161  27.0922  30.6004  34.0096

          k = 0.1661 0.4983 0.4286 (  2237 PWs)   bands (ev):

   -81.6079 -42.1245 -42.1080 -41.9795  12.6888  15.5727  16.1396  18.0550
    19.7878  19.9937  21.0107  24.1925  25.1932  31.2704  34.8945

          k = 0.3322 0.3322 0.0000 (  2223 PWs)   bands (ev):

   -81.6085 -42.0942 -42.0533 -42.0503  10.1275  16.7564  17.4104  18.4952
    19.0635  19.2317  22.5360  25.7386  28.4686  30.5732  33.8789

          k = 0.3322 0.3322 0.1429 (  2235 PWs)   bands (ev):

   -81.6081 -42.1000 -42.0527 -42.0498  10.4245  16.7900  17.2214  18.3517
    19.1013  19.3230  23.0054  25.5171  26.5681  31.8444  34.7380

          k = 0.3322 0.3322 0.2857 (  2234 PWs)   bands (ev):

   -81.6073 -42.1130 -42.0513 -42.0487  11.2435  16.3056  16.8593  18.6445
    19.1811  19.4876  23.4076  24.2361  26.2856  31.5130  32.2127

          k = 0.3322 0.3322 0.4286 (  2222 PWs)   bands (ev):

   -81.6067 -42.1233 -42.0501 -42.0477  12.2447  15.3079  16.6111  19.2427
    19.4021  19.8950  21.4377  25.9056  26.4849  28.8141  30.7070

          k = 0.3322 0.4983 0.0000 (  2221 PWs)   bands (ev):

   -81.6033 -42.1038 -42.0890 -42.0461  12.1875  14.9570  17.9626  18.1999
    18.9405  19.0463  21.9168  26.5558  28.7478  30.4191  33.5810

          k = 0.3322 0.4983 0.1429 (  2234 PWs)   bands (ev):

   -81.6029 -42.1032 -42.0946 -42.0456  12.4140  15.1352  17.1337  18.6360
    19.1359  19.3721  22.0741  26.5898  28.1207  28.9842  31.4555

          k = 0.3322 0.4983 0.2857 (  2238 PWs)   bands (ev):

   -81.6021 -42.1073 -42.1017 -42.0444  13.0000  15.4751  16.3396  18.9057
    19.3274  20.2570  22.4153  25.2916  26.6454  28.3349  29.9089

          k = 0.3322 0.4983 0.4286 (  2228 PWs)   bands (ev):

   -81.6015 -42.1175 -42.1005 -42.0434  13.6165  15.6340  15.7859  19.2561
    20.1423  20.8061  21.8923  24.1641  25.4922  27.6364  30.5269

          k = 0.4983 0.4983 0.0000 (  2215 PWs)   bands (ev):

   -81.5981 -42.0977 -42.0972 -42.0838  13.5580  16.1215  17.2636  18.4513
    18.5396  18.5446  21.6208  25.4572  26.3422  30.9226  35.4615

          k = 0.4983 0.4983 0.1429 (  2232 PWs)   bands (ev):

   -81.5978 -42.0972 -42.0966 -42.0893  13.7527  16.0717  16.5991  18.1082
    19.4375  19.5356  21.7299  25.2705  26.2460  29.3885  32.8928

          k = 0.4983 0.4983 0.2857 (  2238 PWs)   bands (ev):

   -81.5970 -42.1019 -42.0958 -42.0953  14.2400  15.7582  15.8527  18.9167
    20.5587  20.7148  22.3724  24.6372  25.4454  27.6959  29.6958

          k = 0.4983 0.4983 0.4286 (  2246 PWs)   bands (ev):

   -81.5963 -42.1119 -42.0947 -42.0943  14.7033  15.4503  15.4767  20.3906
    20.9491  21.7538  23.4520  23.8858  24.0382  26.8192  27.4116

     the Fermi energy is    23.8276 ev

!    total energy              =    -343.98064229 Ry
     estimated scf accuracy    <       0.00000004 Ry
     smearing contrib. (-TS)   =       0.00083298 Ry
     internal energy E=F+TS    =    -343.98147527 Ry

     The total energy is F=E-TS. E is the sum of the following terms:
     one-electron contribution =    -188.07673393 Ry
     hartree contribution      =     112.12500882 Ry
     xc contribution           =     -46.65561776 Ry
     ewald contribution        =    -221.37413240 Ry

     convergence has been achieved in   6 iterations

     Forces acting on atoms (cartesian axes, Ry/au):

     atom    1 type  1   force =     0.00000000    0.00000000    0.00000000
     atom    2 type  2   force =     0.00000000    0.00000000    0.00000000

     Total force =     0.000000     Total SCF correction =     0.000000


     Computing stress (Cartesian axis) and pressure

          total   stress  (Ry/bohr**3)                   (kbar)     P=     1018.54
   0.00678416   0.00000000   0.00000000          997.98        0.00        0.00
   0.00000000   0.00678416   0.00000000            0.00      997.98        0.00
   0.00000000   0.00000000   0.00720328            0.00        0.00     1059.64


     BFGS Geometry Optimization
     Energy error            =      1.4E-01 Ry
     Gradient error          =      0.0E+00 Ry/Bohr
     Cell gradient error     =      1.1E+03 kbar

     number of scf cycles    =   1
     number of bfgs steps    =   0

     enthalpy           new  =    -343.9806422906 Ry

     new trust radius        =       0.3857986726 bohr
     new conv_thr            =       0.0000010000 Ry

     new unit-cell volume =    135.40454 a.u.^3 (    20.06488 Ang^3 )
     density =      7.18169 g/cm^3

CELL_PARAMETERS (alat=  5.37330365)
   0.860000000   0.000000000   0.000000000
   0.000000000   0.860000000   0.000000000
   0.000000000   0.000000000   1.180081959

ATOMIC_POSITIONS (crystal)
Si               0.0000000000        0.0000000000        0.0000000000
Ni               0.5000000000        0.5000000000        0.5000000000



     Writing config-only to output data dir ./tmp/SiNi-relax.save/ :
     XML data file
     NEW-OLD atomic charge density approx. for the potential
     New effective cutoffs (rho, wfc):  436.54  109.84

     negative rho (up, down):  1.894E-06 0.000E+00

     total cpu time spent up to now is       11.0 secs

     Self-consistent Calculation

     iteration #  1     ecut=   110.00 Ry     beta= 0.70
     Davidson diagonalization with overlap
     ethr =  1.00E-06,  avg # of iterations =  9.8

     total cpu time spent up to now is       15.1 secs

     total energy              =    -344.04956236 Ry
     estimated scf accuracy    <       0.02036134 Ry

     iteration #  2     ecut=   110.00 Ry     beta= 0.70
     Davidson diagonalization with overlap
     ethr =  9.26E-05,  avg # of iterations =  2.6

     total cpu time spent up to now is       16.7 secs

     total energy              =    -344.03334950 Ry
     estimated scf accuracy    <       0.22300824 Ry

     iteration #  3     ecut=   110.00 Ry     beta= 0.70
     Davidson diagonalization with overlap
     ethr =  9.26E-05,  avg # of iterations =  2.3

     total cpu time spent up to now is       18.1 secs

     total energy              =    -344.06250105 Ry
     estimated scf accuracy    <       0.00015854 Ry

     iteration #  4     ecut=   110.00 Ry     beta= 0.70
     Davidson diagonalization with overlap
     ethr =  7.21E-07,  avg # of iterations =  3.2

     total cpu time spent up to now is       19.7 secs

     total energy              =    -344.06256209 Ry
     estimated scf accuracy    <       0.00006496 Ry

     iteration #  5     ecut=   110.00 Ry     beta= 0.70
     Davidson diagonalization with overlap
     ethr =  2.95E-07,  avg # of iterations =  1.1

     total cpu time spent up to now is       20.8 secs

     total energy              =    -344.06256483 Ry
     estimated scf accuracy    <       0.00000620 Ry

     iteration #  6     ecut=   110.00 Ry     beta= 0.70
     Davidson diagonalization with overlap
     ethr =  2.82E-08,  avg # of iterations =  2.0

     total cpu time spent up to now is       22.1 secs

     End of self-consistent calculation

          k = 0.0000 0.0000 0.0000 (  2225 PWs)   bands (ev):

   -84.9053 -45.3987 -45.1938 -45.1938   3.8225  13.9036  14.7054  15.8828
    16.8718  16.8718  17.6858  22.6762  26.4125  26.4125  26.9609

          k = 0.0000 0.0000 0.1211 (  2234 PWs)   bands (ev):

   -84.9054 -45.4002 -45.1938 -45.1938   4.0698  12.8815  14.7416  15.9400
    16.8140  16.8140  17.6885  24.0207  26.7442  26.7442  26.8225

          k = 0.0000 0.0000 0.2421 (  2242 PWs)   bands (ev):

   -84.9053 -45.4020 -45.1937 -45.1937   4.7644  10.9324  14.8250  16.0470
    16.6901  16.6901  17.6945  26.5137  26.8814  27.6467  27.6467

          k = 0.0000 0.0000 0.3632 (  2246 PWs)   bands (ev):

   -84.9053 -45.4042 -45.1937 -45.1937   5.6306   9.3019  14.8938  16.1287
    16.5952  16.5952  17.6994  26.2682  28.7449  28.7449  29.4919

          k = 0.0000 0.1661 0.0000 (  2215 PWs)   bands (ev):

   -84.9025 -45.3960 -45.2218 -45.1915   4.3276  14.1632  14.7595  15.1749
    16.9165  17.4600  17.9220  22.1764  22.8134  26.9600  29.7706

          k = 0.0000 0.1661 0.1211 (  2232 PWs)   bands (ev):

   -84.9026 -45.3973 -45.2218 -45.1915   4.5684  13.1757  14.8040  15.4382
    16.8619  17.4471  17.4654  22.4204  24.2870  27.2690  29.6603

          k = 0.0000 0.1661 0.2421 (  2235 PWs)   bands (ev):

   -84.9025 -45.3991 -45.2217 -45.1914   5.2410  11.3495  14.9250  15.7233
    16.7452  16.8291  17.4764  22.9747  27.1920  28.0996  29.3916

          k = 0.0000 0.1661 0.3632 (  2237 PWs)   bands (ev):

   -84.9025 -45.4009 -45.2216 -45.1913   6.0653   9.8073  15.0343  15.9980
    16.3707  16.6558  17.4845  23.4880  28.6405  29.0635  29.3238

          k = 0.0000 0.3322 0.0000 (  2233 PWs)   bands (ev):

   -84.8963 -45.3897 -45.2845 -45.1863   5.8131  13.9602  14.4347  14.8130
    16.9990  17.0180  19.0703  19.7552  23.1308  28.4662  30.7733

          k = 0.0000 0.3322 0.1211 (  2222 PWs)   bands (ev):

   -84.8963 -45.3906 -45.2844 -45.1862   6.0326  13.7190  14.0580  15.1008
    16.9641  17.0147  18.3950  19.4790  24.8851  27.8269  28.7127

          k = 0.0000 0.3322 0.2421 (  2231 PWs)   bands (ev):

   -84.8963 -45.3927 -45.2843 -45.1861   6.6336  12.4202  14.3055  15.2828
    16.8688  17.0268  17.1639  19.9536  25.4728  28.3377  29.3428

          k = 0.0000 0.3322 0.3632 (  2255 PWs)   bands (ev):

   -84.8963 -45.3943 -45.2841 -45.1861   7.3277  11.2311  14.5818  15.2958
    16.5476  16.7936  17.0373  20.5143  24.2109  29.9794  30.3883

          k = 0.0000 0.4983 0.0000 (  2242 PWs)   bands (ev):

   -84.8912 -45.3845 -45.3345 -45.1822   8.1831  11.2243  14.0317  15.1911
    16.6651  17.1006  18.7036  22.0914  23.6396  25.5825  29.6821

          k = 0.0000 0.4983 0.1211 (  2239 PWs)   bands (ev):

   -84.8913 -45.3857 -45.3345 -45.1821   8.3564  11.3470  13.9851  15.1792
    16.6732  17.0615  18.4326  20.6534  23.3786  26.6886  30.8583

          k = 0.0000 0.4983 0.2421 (  2237 PWs)   bands (ev):

   -84.8912 -45.3873 -45.3342 -45.1819   8.7912  11.7060  13.8004  15.0977
    16.6918  16.9751  17.4752  19.6298  21.9046  29.5380  31.1273

          k = 0.0000 0.4983 0.3632 (  2246 PWs)   bands (ev):

   -84.8912 -45.3891 -45.3341 -45.1819   9.1993  12.2616  13.3271  14.9404
    16.7071  16.7205  16.9068  19.2632  21.0643  31.3048  31.9212

          k = 0.1661 0.1661 0.0000 (  2227 PWs)   bands (ev):

   -84.8998 -45.3932 -45.2201 -45.2186   4.8271  14.3822  14.8768  15.0114
    16.5562  17.1967  18.8335  21.7346  22.9119  24.2599  33.2770

          k = 0.1661 0.1661 0.1211 (  2231 PWs)   bands (ev):

   -84.8998 -45.3945 -45.2200 -45.2186   5.0613  13.4369  14.9256  15.3688
    16.4309  17.2013  18.1460  21.9857  24.0806  24.9791  32.1764

          k = 0.1661 0.1661 0.2421 (  2236 PWs)   bands (ev):

   -84.8997 -45.3962 -45.2199 -45.2185   5.7121  11.7448  15.0565  15.7714
    16.1491  17.1766  17.3729  22.5862  24.8554  28.0700  30.3667

          k = 0.1661 0.1661 0.3632 (  2241 PWs)   bands (ev):

   -84.8997 -45.3981 -45.2198 -45.2184   6.4962  10.2945  15.2072  15.8940
    16.1845  16.7330  17.2540  23.1399  25.5184  29.1690  29.5908

          k = 0.1661 0.3322 0.0000 (  2237 PWs)   bands (ev):

   -84.8935 -45.3869 -45.2817 -45.2138   6.2943  14.1708  14.5686  15.0283
    16.4921  16.7687  19.1820  20.5319  23.4061  24.8777  29.6823

          k = 0.1661 0.3322 0.1211 (  2228 PWs)   bands (ev):

   -84.8935 -45.3880 -45.2816 -45.2137   6.5071  13.9178  14.2671  15.3070
    16.3781  16.7937  19.0445  19.6466  24.5548  25.8518  28.1937

          k = 0.1661 0.3322 0.2421 (  2238 PWs)   bands (ev):

   -84.8935 -45.3900 -45.2815 -45.2136   7.0865  12.7367  14.4433  15.5414
    16.2189  16.8328  17.8063  20.1112  25.1260  26.0878  29.1206

          k = 0.1661 0.3322 0.3632 (  2239 PWs)   bands (ev):

   -84.8935 -45.3914 -45.2813 -45.2136   7.7461  11.6399  14.6026  15.5572
    16.3910  16.8516  16.9776  20.7270  24.6743  25.5805  30.8449

          k = 0.1661 0.4983 0.0000 (  2239 PWs)   bands (ev):

   -84.8885 -45.3817 -45.3315 -45.2094   8.6252  11.6067  14.2279  15.4631
    16.3659  16.6014  18.6719  22.8142  24.1352  25.8811  27.0415

          k = 0.1661 0.4983 0.1211 (  2240 PWs)   bands (ev):

   -84.8885 -45.3828 -45.3314 -45.2093   8.7905  11.7291  14.0969  15.4946
    16.4485  16.5579  18.5588  21.1734  24.0192  26.0290  27.8800

          k = 0.1661 0.4983 0.2421 (  2237 PWs)   bands (ev):

   -84.8885 -45.3847 -45.3312 -45.2092   9.2055  12.0679  13.7929  15.4406
    16.4126  16.7829  17.9927  19.7943  22.3111  26.6523  29.8265

          k = 0.1661 0.4983 0.3632 (  2237 PWs)   bands (ev):

   -84.8885 -45.3861 -45.3310 -45.2091   9.5970  12.5179  13.4082  15.2050
    16.5702  17.0591  17.1566  19.3261  21.2694  27.0033  30.6272

          k = 0.3322 0.3322 0.0000 (  2223 PWs)   bands (ev):

   -84.8873 -45.3805 -45.2765 -45.2742   7.6989  14.4001  14.7833  15.1022
    15.8443  16.5616  18.9137  22.0829  22.0843  24.5873  29.4488

          k = 0.3322 0.3322 0.1211 (  2235 PWs)   bands (ev):

   -84.8873 -45.3816 -45.2765 -45.2742   7.8894  14.1009  14.8487  14.9757
    16.0028  16.6039  19.2526  20.5117  22.0896  26.4738  29.0154

          k = 0.3322 0.3322 0.2421 (  2234 PWs)   bands (ev):

   -84.8873 -45.3837 -45.2763 -45.2741   8.3982  13.3595  14.4774  15.4938
    16.1768  16.6845  18.6978  20.1412  22.0287  26.9047  27.6942

          k = 0.3322 0.3322 0.3632 (  2222 PWs)   bands (ev):

   -84.8873 -45.3849 -45.2762 -45.2739   8.9507  12.6069  14.2557  16.2558
    16.2732  16.7406  17.3492  21.1588  21.9560  25.1271  26.9575

          k = 0.3322 0.4983 0.0000 (  2221 PWs)   bands (ev):

   -84.8823 -45.3755 -45.3245 -45.2703   9.8757  12.6417  14.7070  15.4330
    15.7690  16.2883  18.5084  22.8534  23.9522  25.1475  27.0260

          k = 0.3322 0.4983 0.1211 (  2234 PWs)   bands (ev):

   -84.8824 -45.3766 -45.3244 -45.2702  10.0166  12.7335  14.2441  15.5992
    16.0895  16.4404  18.5766  22.3360  22.7788  25.2621  25.6766

          k = 0.3322 0.4983 0.2421 (  2238 PWs)   bands (ev):

   -84.8824 -45.3787 -45.3243 -45.2701  10.3695  12.9103  13.6936  15.7814
    16.4050  17.0827  18.6275  20.3507  22.4187  23.6878  25.7597

          k = 0.3322 0.4983 0.3632 (  2228 PWs)   bands (ev):

   -84.8823 -45.3797 -45.3241 -45.2700  10.7060  13.0045  13.3523  16.3052
    16.6256  17.5445  18.0701  19.4673  21.7421  23.0051  26.0430

          k = 0.4983 0.4983 0.0000 (  2215 PWs)   bands (ev):

   -84.8774 -45.3705 -45.3192 -45.3187  11.5500  13.7017  14.8151  15.1128
    15.2774  16.0307  18.3495  21.3580  22.6316  24.5547  28.6066

          k = 0.4983 0.4983 0.1211 (  2232 PWs)   bands (ev):

   -84.8774 -45.3717 -45.3191 -45.3187  11.6634  13.5913  14.0696  15.1746
    16.2589  16.5370  18.4065  21.0066  22.3575  23.9355  26.8989

          k = 0.4983 0.4983 0.2421 (  2238 PWs)   bands (ev):

   -84.8775 -45.3738 -45.3190 -45.3186  11.9307  13.3322  13.4249  15.7961
    17.4014  17.4454  18.7846  20.1553  21.2505  23.0869  24.6398

          k = 0.4983 0.4983 0.3632 (  2246 PWs)   bands (ev):

   -84.8774 -45.3749 -45.3189 -45.3184  12.1467  13.0938  13.1827  16.7852
    17.8420  18.1695  19.4140  19.7826  20.0900  22.3027  22.6205

     the Fermi energy is    19.2570 ev

!    total energy              =    -344.06256604 Ry
     estimated scf accuracy    <       0.00000004 Ry
     smearing contrib. (-TS)   =       0.00019771 Ry
     internal energy E=F+TS    =    -344.06276375 Ry

     The total energy is F=E-TS. E is the sum of the following terms:
     one-electron contribution =    -213.19302649 Ry
     hartree contribution      =     121.95247856 Ry
     xc contribution           =     -46.35794253 Ry
     ewald contribution        =    -206.46427329 Ry

     convergence has been achieved in   6 iterations

     Forces acting on atoms (cartesian axes, Ry/au):

     atom    1 type  1   force =     0.00000000    0.00000000    0.00000000
     atom    2 type  2   force =     0.00000000    0.00000000    0.00000000

     Total force =     0.000000     Total SCF correction =     0.000000


     Computing stress (Cartesian axis) and pressure

          total   stress  (Ry/bohr**3)                   (kbar)     P=      290.32
   0.00237468   0.00000000   0.00000000          349.33        0.00        0.00
   0.00000000   0.00237468   0.00000000            0.00      349.33        0.00
   0.00000000   0.00000000   0.00117141            0.00        0.00      172.32

     Energy error            =      8.2E-02 Ry
     Gradient error          =      0.0E+00 Ry/Bohr
     Cell gradient error     =      1.7E+02 kbar

     number of scf cycles    =   2
     number of bfgs steps    =   1

     enthalpy           old  =    -343.9806422906 Ry
     enthalpy           new  =    -344.0625660396 Ry

     CASE: enthalpy          _new < enthalpy          _old

     new trust radius        =       0.0689699933 bohr
     new conv_thr            =       0.0000000100 Ry

     new unit-cell volume =    139.41733 a.u.^3 (    20.65952 Ang^3 )
     density =      6.97498 g/cm^3

CELL_PARAMETERS (alat=  5.37330365)
   0.860000000   0.000000000   0.000000000
   0.000000000   0.860000000   0.000000000
   0.000000000   0.000000000   1.215054384

ATOMIC_POSITIONS (crystal)
Si               0.0000000000        0.0000000000        0.0000000000
Ni               0.5000000000        0.5000000000        0.5000000000



     Writing config-only to output data dir ./tmp/SiNi-relax.save/ :
     XML data file
     NEW-OLD atomic charge density approx. for the potential
     New effective cutoffs (rho, wfc):  436.31  109.83

     total cpu time spent up to now is       23.2 secs

     Self-consistent Calculation

     iteration #  1     ecut=   110.00 Ry     beta= 0.70
     Davidson diagonalization with overlap
     ethr =  1.00E-06,  avg # of iterations =  6.8

     total cpu time spent up to now is       26.2 secs

     total energy              =    -344.06463887 Ry
     estimated scf accuracy    <       0.00093467 Ry

     iteration #  2     ecut=   110.00 Ry     beta= 0.70
     Davidson diagonalization with overlap
     ethr =  4.25E-06,  avg # of iterations =  2.7

     total cpu time spent up to now is       27.8 secs

     total energy              =    -344.06391604 Ry
     estimated scf accuracy    <       0.01026136 Ry

     iteration #  3     ecut=   110.00 Ry     beta= 0.70
     Davidson diagonalization with overlap
     ethr =  4.25E-06,  avg # of iterations =  2.4

     total cpu time spent up to now is       29.3 secs

     total energy              =    -344.06522536 Ry
     estimated scf accuracy    <       0.00000564 Ry

     iteration #  4     ecut=   110.00 Ry     beta= 0.70
     Davidson diagonalization with overlap
     ethr =  2.57E-08,  avg # of iterations =  3.2

     total cpu time spent up to now is       30.9 secs

     total energy              =    -344.06522802 Ry
     estimated scf accuracy    <       0.00000294 Ry

     iteration #  5     ecut=   110.00 Ry     beta= 0.70
     Davidson diagonalization with overlap
     ethr =  1.34E-08,  avg # of iterations =  1.1

     total cpu time spent up to now is       32.0 secs

     total energy              =    -344.06522812 Ry
     estimated scf accuracy    <       0.00000031 Ry

     iteration #  6     ecut=   110.00 Ry     beta= 0.70
     Davidson diagonalization with overlap
     ethr =  1.39E-09,  avg # of iterations =  2.0

     total cpu time spent up to now is       33.5 secs

     total energy              =    -344.06522819 Ry
     estimated scf accuracy    <       0.00000002 Ry

     iteration #  7     ecut=   110.00 Ry     beta= 0.70
     Davidson diagonalization with overlap
     ethr =  1.02E-10,  avg # of iterations =  1.3

     total cpu time spent up to now is       34.6 secs

     End of self-consistent calculation

          k = 0.0000 0.0000 0.0000 (  2225 PWs)   bands (ev):

   -85.4265 -45.9060 -45.7122 -45.7122   3.4219  13.4038  14.2591  14.9015
    16.3934  16.3934  17.1989  21.5154  26.0000  26.0000  26.3311

          k = 0.0000 0.0000 0.1176 (  2234 PWs)   bands (ev):

   -85.4267 -45.9081 -45.7123 -45.7123   3.6493  12.2574  14.2887  15.1692
    16.3458  16.3458  17.2008  22.7696  26.2097  26.3006  26.3006

          k = 0.0000 0.0000 0.2351 (  2242 PWs)   bands (ev):

   -85.4266 -45.9093 -45.7121 -45.7121   4.2825  10.3383  14.3565  15.3858
    16.2441  16.2441  17.2053  25.5274  25.9397  27.1138  27.1138

          k = 0.0000 0.0000 0.3527 (  2246 PWs)   bands (ev):

   -85.4268 -45.9120 -45.7122 -45.7122   5.0489   8.8204  14.4122  15.4880
    16.1647  16.1647  17.2089  25.7257  28.0701  28.0701  28.2262

          k = 0.0000 0.1661 0.0000 (  2215 PWs)   bands (ev):

   -85.4238 -45.9033 -45.7401 -45.7100   3.9259  13.6816  14.3264  14.4291
    16.4368  16.9820  17.2022  21.5726  21.7155  26.5309  29.1807

          k = 0.0000 0.1661 0.1176 (  2232 PWs)   bands (ev):

   -85.4239 -45.9051 -45.7400 -45.7100   4.1471  12.5645  14.3660  14.8357
    16.3922  16.8079  16.9861  21.8492  23.0483  26.8099  29.0690

          k = 0.0000 0.1661 0.2351 (  2235 PWs)   bands (ev):

   -85.4238 -45.9065 -45.7399 -45.7098   4.7598  10.7662  14.4671  15.1783
    16.2679  16.2969  16.9945  22.3453  25.9098  27.5549  28.7573

          k = 0.0000 0.1661 0.3527 (  2237 PWs)   bands (ev):

   -85.4239 -45.9083 -45.7399 -45.7098   5.4893   9.3283  14.5554  15.4766
    15.8351  16.2228  17.0009  22.8000  28.0537  28.3929  28.4336

          k = 0.0000 0.3322 0.0000 (  2233 PWs)   bands (ev):

   -85.4176 -45.8973 -45.8024 -45.7049   5.4098  13.5989  13.8266  14.3370
    16.5351  16.5365  18.4575  18.8823  22.0291  28.0025  28.3807

          k = 0.0000 0.3322 0.1176 (  2222 PWs)   bands (ev):

   -85.4176 -45.8982 -45.8022 -45.7048   5.6110  13.1422  13.6852  14.5963
    16.4938  16.5474  17.6614  18.7925  23.7503  26.9332  28.2221

          k = 0.0000 0.3322 0.2351 (  2231 PWs)   bands (ev):

   -85.4176 -45.9003 -45.8021 -45.7046   6.1572  11.8759  13.9083  14.7814
    16.4155  16.5137  16.5582  19.2438  24.7922  27.0837  28.7802

          k = 0.0000 0.3322 0.3527 (  2255 PWs)   bands (ev):

   -85.4177 -45.9020 -45.8020 -45.7047   6.7727  10.7619  14.1544  14.8120
    15.9404  16.3535  16.5665  19.7366  23.6466  29.3331  29.4494

          k = 0.0000 0.4983 0.0000 (  2242 PWs)   bands (ev):

   -85.4125 -45.8920 -45.8519 -45.7008   7.7828  10.8427  13.4822  14.7102
    16.2120  16.6154  18.1298  21.1367  22.6728  24.6009  28.4587

          k = 0.0000 0.4983 0.1176 (  2239 PWs)   bands (ev):

   -85.4126 -45.8937 -45.8519 -45.7006   7.9404  10.9502  13.4563  14.6915
    16.2185  16.5845  17.8173  19.8031  22.5267  25.6072  30.3322

          k = 0.0000 0.4983 0.2351 (  2237 PWs)   bands (ev):

   -85.4126 -45.8950 -45.8517 -45.7005   8.3334  11.2683  13.3130  14.6061
    16.2331  16.5161  16.8170  18.8685  21.2074  28.4188  30.5611

          k = 0.0000 0.4983 0.3527 (  2246 PWs)   bands (ev):

   -85.4127 -45.8969 -45.8516 -45.7006   8.6982  11.7658  12.8674  14.4807
    16.1039  16.2450  16.4606  18.4632  20.4840  30.7159  30.9666

          k = 0.1661 0.1661 0.0000 (  2227 PWs)   bands (ev):

   -85.4210 -45.9006 -45.7384 -45.7368   4.4247  13.9195  14.3110  14.4518
    16.0784  16.7294  18.0601  21.1703  21.8109  23.6836  32.7658

          k = 0.1661 0.1661 0.1176 (  2231 PWs)   bands (ev):

   -85.4211 -45.9024 -45.7383 -45.7369   4.6397  12.8408  14.4947  14.8038
    15.9666  16.7313  17.4597  21.3980  23.2239  24.0407  31.5227

          k = 0.1661 0.1661 0.2351 (  2236 PWs)   bands (ev):

   -85.4211 -45.9037 -45.7382 -45.7368   5.2321  11.1735  14.6084  15.2296
    15.7154  16.6627  16.8267  21.9414  24.2384  26.6788  29.7680

          k = 0.1661 0.1661 0.3527 (  2241 PWs)   bands (ev):

   -85.4212 -45.9057 -45.7382 -45.7367   5.9263   9.8190  14.7330  15.4936
    15.6054  16.2237  16.7769  22.4362  24.8116  28.6451  29.0027

          k = 0.1661 0.3322 0.0000 (  2237 PWs)   bands (ev):

   -85.4148 -45.8944 -45.7996 -45.7321   5.8915  13.8040  13.9704  14.5785
    16.0029  16.3142  18.5695  19.6524  22.3677  24.2390  28.7100

          k = 0.1661 0.3322 0.1176 (  2228 PWs)   bands (ev):

   -85.4149 -45.8958 -45.7994 -45.7321   6.0864  13.3591  13.8878  14.8211
    15.8981  16.3350  18.3299  18.9351  23.8384  24.7988  27.3292

          k = 0.1661 0.3322 0.2351 (  2238 PWs)   bands (ev):

   -85.4150 -45.8978 -45.7994 -45.7320   6.6129  12.2073  14.0527  15.0471
    15.7392  16.3681  17.1615  19.4078  24.5025  25.3925  27.7813

          k = 0.1661 0.3322 0.3527 (  2239 PWs)   bands (ev):

   -85.4150 -45.8991 -45.7992 -45.7320   7.1982  11.1785  14.2008  15.0793
    15.8447  16.3688  16.4556  19.9540  24.1050  24.8944  30.2341

          k = 0.1661 0.4983 0.0000 (  2239 PWs)   bands (ev):

   -85.4098 -45.8891 -45.8489 -45.7278   8.2281  11.2292  13.6873  14.9988
    15.9057  16.1087  18.1004  21.8601  23.2331  24.9031  26.3546

          k = 0.1661 0.4983 0.1176 (  2240 PWs)   bands (ev):

   -85.4099 -45.8905 -45.8488 -45.7277   8.3786  11.3366  13.5855  15.0192
    15.9743  16.0738  17.9645  20.3167  23.1720  25.2438  26.9817

          k = 0.1661 0.4983 0.2351 (  2237 PWs)   bands (ev):

   -85.4099 -45.8926 -45.8487 -45.7276   8.7538  11.6366  13.3322  14.9605
    15.9227  16.2932  17.3649  19.0394  21.6061  26.0063  28.9785

          k = 0.1661 0.4983 0.3527 (  2237 PWs)   bands (ev):

   -85.4100 -45.8938 -45.8486 -45.7276   9.1038  12.0410  12.9789  14.7469
    16.0173  16.5721  16.6198  18.5387  20.6885  26.3373  29.9473

          k = 0.3322 0.3322 0.0000 (  2223 PWs)   bands (ev):

   -85.4086 -45.8879 -45.7944 -45.7921   7.3001  14.0212  14.2179  14.7228
    15.3658  16.1174  18.3139  21.1594  21.4652  23.4845  28.8547

          k = 0.3322 0.3322 0.1176 (  2235 PWs)   bands (ev):

   -85.4087 -45.8894 -45.7943 -45.7921   7.4745  13.6327  14.4683  14.4963
    15.5293  16.1542  18.6332  19.6733  21.4466  25.3517  28.2195

          k = 0.3322 0.3322 0.2351 (  2234 PWs)   bands (ev):

   -85.4088 -45.8917 -45.7942 -45.7921   7.9365  12.8885  14.1075  15.0088
    15.7003  16.2262  17.9815  19.4620  21.3571  26.2057  26.9357

          k = 0.3322 0.3322 0.3527 (  2222 PWs)   bands (ev):

   -85.4088 -45.8926 -45.7941 -45.7919   8.4279  12.1780  13.8945  15.7297
    15.7759  16.2766  16.7428  20.3774  21.2624  24.5699  26.3470

          k = 0.3322 0.4983 0.0000 (  2221 PWs)   bands (ev):

   -85.4036 -45.8829 -45.8420 -45.7883   9.4937  12.2729  14.1902  15.0029
    15.2807  15.8485  17.9450  22.2338  23.0030  24.4764  26.0488

          k = 0.3322 0.4983 0.1176 (  2234 PWs)   bands (ev):

   -85.4037 -45.8844 -45.8420 -45.7882   9.6219  12.3534  13.7849  15.1294
    15.6089  15.9732  17.9967  21.4711  22.1422  24.5553  24.8980

          k = 0.3322 0.4983 0.2351 (  2238 PWs)   bands (ev):

   -85.4039 -45.8869 -45.8420 -45.7882   9.9411  12.5092  13.2802  15.2993
    15.9370  16.5576  17.9949  19.6022  21.7698  22.9636  25.1109

          k = 0.3322 0.4983 0.3527 (  2228 PWs)   bands (ev):

   -85.4038 -45.8874 -45.8418 -45.7880  10.2412  12.5951  12.9693  15.8089
    16.1027  16.9758  17.5101  18.7198  21.1790  22.2919  25.3544

          k = 0.4983 0.4983 0.0000 (  2215 PWs)   bands (ev):

   -85.3987 -45.8780 -45.8368 -45.8363  11.2159  13.3192  14.4100  14.6207
    14.7967  15.6201  17.8150  20.6478  22.0276  23.6449  27.5157

          k = 0.4983 0.4983 0.1176 (  2232 PWs)   bands (ev):

   -85.3988 -45.8797 -45.8368 -45.8363  11.3175  13.2035  13.6715  14.7176
    15.7668  16.0690  17.8641  20.2870  21.7303  23.1151  25.9888

          k = 0.4983 0.4983 0.2351 (  2238 PWs)   bands (ev):

   -85.3990 -45.8822 -45.8367 -45.8363  11.5544  12.9569  13.0515  15.3161
    16.8926  16.9081  18.1930  19.4532  20.6065  22.3491  23.8749

          k = 0.4983 0.4983 0.3527 (  2246 PWs)   bands (ev):

   -85.3990 -45.8830 -45.8366 -45.8362  11.7428  12.7343  12.8210  16.2341
    17.3414  17.5532  18.7524  19.2398  19.3694  21.6883  21.8836

     the Fermi energy is    18.5487 ev

!    total energy              =    -344.06522819 Ry
     estimated scf accuracy    <          1.4E-09 Ry
     smearing contrib. (-TS)   =      -0.00001892 Ry
     internal energy E=F+TS    =    -344.06520928 Ry

     The total energy is F=E-TS. E is the sum of the following terms:
     one-electron contribution =    -217.98387074 Ry
     hartree contribution      =     123.91584506 Ry
     xc contribution           =     -46.31240860 Ry
     ewald contribution        =    -203.68477499 Ry

     convergence has been achieved in   7 iterations

     Forces acting on atoms (cartesian axes, Ry/au):

     atom    1 type  1   force =     0.00000000    0.00000000    0.00000000
     atom    2 type  2   force =     0.00000000    0.00000000    0.00000000

     Total force =     0.000000     Total SCF correction =     0.000000


     Computing stress (Cartesian axis) and pressure

          total   stress  (Ry/bohr**3)                   (kbar)     P=      193.57
   0.00190865   0.00000000   0.00000000          280.77        0.00        0.00
   0.00000000   0.00190865   0.00000000            0.00      280.77        0.00
   0.00000000   0.00000000   0.00013037            0.00        0.00       19.18

     Energy error            =      2.7E-03 Ry
     Gradient error          =      0.0E+00 Ry/Bohr
     Cell gradient error     =      1.9E+01 kbar

     number of scf cycles    =   3
     number of bfgs steps    =   2

     enthalpy           old  =    -344.0625660396 Ry
     enthalpy           new  =    -344.0652281918 Ry

     CASE: enthalpy          _new < enthalpy          _old

     new trust radius        =       0.0085119727 bohr
     new conv_thr            =       0.0000000100 Ry

     new unit-cell volume =    139.91986 a.u.^3 (    20.73398 Ang^3 )
     density =      6.94993 g/cm^3

CELL_PARAMETERS (alat=  5.37330365)
   0.860000000   0.000000000   0.000000000
   0.000000000   0.860000000   0.000000000
   0.000000000   0.000000000   1.219434015

ATOMIC_POSITIONS (crystal)
Si               0.0000000000        0.0000000000        0.0000000000
Ni               0.5000000000        0.5000000000        0.5000000000



     Writing config-only to output data dir ./tmp/SiNi-relax.save/ :
     XML data file
     NEW-OLD atomic charge density approx. for the potential
     New effective cutoffs (rho, wfc):  436.29  109.83

     total cpu time spent up to now is       35.7 secs

     Self-consistent Calculation

     iteration #  1     ecut=   110.00 Ry     beta= 0.70
     Davidson diagonalization with overlap
     ethr =  1.00E-06,  avg # of iterations =  3.2

     Threshold (ethr) on eigenvalues was too large:
     Diagonalizing with lowered threshold

     Davidson diagonalization with overlap
     ethr =  5.27E-08,  avg # of iterations =  1.9

     total cpu time spent up to now is       38.9 secs

     total energy              =    -344.06525189 Ry
     estimated scf accuracy    <       0.00001362 Ry

     iteration #  2     ecut=   110.00 Ry     beta= 0.70
     Davidson diagonalization with overlap
     ethr =  6.19E-08,  avg # of iterations =  2.3

     total cpu time spent up to now is       40.3 secs

     total energy              =    -344.06524211 Ry
     estimated scf accuracy    <       0.00014134 Ry

     iteration #  3     ecut=   110.00 Ry     beta= 0.70
     Davidson diagonalization with overlap
     ethr =  6.19E-08,  avg # of iterations =  2.1

     total cpu time spent up to now is       41.7 secs

     total energy              =    -344.06526028 Ry
     estimated scf accuracy    <       0.00000010 Ry

     iteration #  4     ecut=   110.00 Ry     beta= 0.70
     Davidson diagonalization with overlap
     ethr =  4.45E-10,  avg # of iterations =  3.2

     total cpu time spent up to now is       43.2 secs

     total energy              =    -344.06526032 Ry
     estimated scf accuracy    <       0.00000004 Ry

     iteration #  5     ecut=   110.00 Ry     beta= 0.70
     Davidson diagonalization with overlap
     ethr =  1.71E-10,  avg # of iterations =  1.1

     total cpu time spent up to now is       44.3 secs

     End of self-consistent calculation

          k = 0.0000 0.0000 0.0000 (  2225 PWs)   bands (ev):

   -85.4908 -45.9680 -45.7761 -45.7761   3.3732  13.3423  14.2038  14.7848
    16.3351  16.3351  17.1389  21.3746  25.9496  25.9496  26.2550

          k = 0.0000 0.0000 0.1172 (  2234 PWs)   bands (ev):

   -85.4909 -45.9703 -45.7762 -45.7762   3.5982  12.1804  14.2327  15.0783
    16.2886  16.2886  17.1407  22.6178  26.1357  26.2465  26.2465

          k = 0.0000 0.0000 0.2343 (  2242 PWs)   bands (ev):

   -85.4909 -45.9715 -45.7760 -45.7760   4.2240  10.2665  14.2988  15.3065
    16.1895  16.1895  17.1449  25.3621  25.8703  27.0489  27.0489

          k = 0.0000 0.0000 0.3515 (  2246 PWs)   bands (ev):

   -85.4911 -45.9742 -45.7761 -45.7761   4.9787   8.7623  14.3529  15.4107
    16.1118  16.1118  17.1484  25.6600  27.9885  27.9885  28.0691

          k = 0.0000 0.1661 0.0000 (  2215 PWs)   bands (ev):

   -85.4880 -45.9654 -45.8039 -45.7739   3.8771  13.6225  14.2729  14.3372
    16.3783  16.9230  17.1185  21.4628  21.6184  26.4785  29.1093

          k = 0.0000 0.1661 0.1172 (  2232 PWs)   bands (ev):

   -85.4881 -45.9672 -45.8039 -45.7739   4.0959  12.4892  14.3119  14.7625
    16.3348  16.7326  16.9269  21.7797  22.8977  26.7539  28.9977

          k = 0.0000 0.1661 0.2343 (  2235 PWs)   bands (ev):

   -85.4881 -45.9686 -45.8038 -45.7737   4.7014  10.6957  14.4106  15.1113
    16.2014  16.2420  16.9351  22.2689  25.7502  27.4887  28.6835

          k = 0.0000 0.1661 0.3515 (  2237 PWs)   bands (ev):

   -85.4882 -45.9705 -45.8037 -45.7737   5.4198   9.2705  14.4965  15.4096
    15.7739  16.1696  16.9412  22.7166  27.9681  28.3119  28.3316

          k = 0.0000 0.3322 0.0000 (  2233 PWs)   bands (ev):

   -85.4818 -45.9594 -45.8662 -45.7688   5.3607  13.5549  13.7528  14.2786
    16.4762  16.4793  18.3823  18.7787  21.8946  27.9459  28.2631

          k = 0.0000 0.3322 0.1172 (  2222 PWs)   bands (ev):

   -85.4818 -45.9603 -45.8660 -45.7687   5.5597  13.0719  13.6399  14.5347
    16.4362  16.4897  17.5729  18.7094  23.6109  26.8270  28.1624

          k = 0.0000 0.3322 0.2343 (  2231 PWs)   bands (ev):

   -85.4819 -45.9625 -45.8660 -45.7686   6.0994  11.8100  13.8600  14.7200
    16.3599  16.4357  16.5003  19.1571  24.7100  26.9290  28.7119

          k = 0.0000 0.3322 0.3515 (  2255 PWs)   bands (ev):

   -85.4820 -45.9642 -45.8658 -45.7686   6.7056  10.7051  14.1026  14.7525
    15.8675  16.2994  16.5084  19.6420  23.5783  29.2551  29.3297

          k = 0.0000 0.4983 0.0000 (  2242 PWs)   bands (ev):

   -85.4768 -45.9541 -45.9157 -45.7647   7.7341  10.7963  13.4161  14.6512
    16.1560  16.5561  18.0592  21.0227  22.5542  24.4830  28.3114

          k = 0.0000 0.4983 0.1172 (  2239 PWs)   bands (ev):

   -85.4769 -45.9559 -45.9157 -45.7646   7.8898  10.9020  13.3926  14.6317
    16.1622  16.5263  17.7415  19.7011  22.4241  25.4754  30.2682

          k = 0.0000 0.4983 0.2343 (  2237 PWs)   bands (ev):

   -85.4769 -45.9572 -45.9155 -45.7644   8.2778  11.2153  13.2541  14.5460
    16.1764  16.4599  16.7372  18.7758  21.1239  28.2802  30.4925

          k = 0.0000 0.4983 0.3515 (  2246 PWs)   bands (ev):

   -85.4770 -45.9592 -45.9154 -45.7645   8.6375  11.7060  12.8117  14.4246
    16.0296  16.1880  16.4058  18.3658  20.4138  30.6447  30.8475

          k = 0.1661 0.1661 0.0000 (  2227 PWs)   bands (ev):

   -85.4853 -45.9626 -45.8023 -45.8007   4.3757  13.8628  14.2253  14.3992
    16.0203  16.6717  17.9691  21.1017  21.6743  23.6163  32.7034

          k = 0.1661 0.1661 0.1172 (  2231 PWs)   bands (ev):

   -85.4854 -45.9646 -45.8022 -45.8007   4.5885  12.7674  14.4414  14.7355
    15.9101  16.6732  17.3782  21.3266  23.0984  23.9483  31.4424

          k = 0.1661 0.1661 0.2343 (  2236 PWs)   bands (ev):

   -85.4854 -45.9658 -45.8020 -45.8007   5.1738  11.1044  14.5530  15.1634
    15.6626  16.5979  16.7628  21.8631  24.1628  26.5106  29.6956

          k = 0.1661 0.1661 0.3515 (  2241 PWs)   bands (ev):

   -85.4855 -45.9679 -45.8021 -45.8006   5.8575   9.7615  14.6747  15.4447
    15.5344  16.1626  16.7181  22.3510  24.7262  28.5817  28.9268

          k = 0.1661 0.3322 0.0000 (  2237 PWs)   bands (ev):

   -85.4791 -45.9565 -45.8634 -45.7960   5.8425  13.7592  13.8979  14.5232
    15.9434  16.2580  18.4944  19.5477  22.2376  24.1650  28.5936

          k = 0.1661 0.3322 0.1172 (  2228 PWs)   bands (ev):

   -85.4791 -45.9580 -45.8633 -45.7960   6.0353  13.2908  13.8417  14.7618
    15.8396  16.2784  18.2424  18.8502  23.7400  24.6819  27.2259

          k = 0.1661 0.3322 0.2343 (  2238 PWs)   bands (ev):

   -85.4792 -45.9601 -45.8632 -45.7959   6.5554  12.1431  14.0052  14.9866
    15.6806  16.3107  17.0840  19.3219  24.4267  25.3089  27.6182

          k = 0.1661 0.3322 0.3515 (  2239 PWs)   bands (ev):

   -85.4792 -45.9614 -45.8631 -45.7959   7.1320  11.1226  14.1520  15.0205
    15.7777  16.3086  16.3939  19.8600  24.0361  24.8118  30.1540

          k = 0.1661 0.4983 0.0000 (  2239 PWs)   bands (ev):

   -85.4740 -45.9512 -45.9127 -45.7916   8.1798  11.1833  13.6223  14.9418
    15.8486  16.0487  18.0301  21.7460  23.1209  24.7859  26.2718

          k = 0.1661 0.4983 0.1172 (  2240 PWs)   bands (ev):

   -85.4741 -45.9527 -45.9126 -45.7916   8.3284  11.2889  13.5239  14.9609
    15.9159  16.0145  17.8915  20.2137  23.0700  25.1436  26.8759

          k = 0.1661 0.4983 0.2343 (  2237 PWs)   bands (ev):

   -85.4742 -45.9548 -45.9125 -45.7915   8.6990  11.5844  13.2764  14.9016
    15.8627  16.2327  17.2887  18.9480  21.5215  25.9274  28.8678

          k = 0.1661 0.4983 0.3515 (  2237 PWs)   bands (ev):

   -85.4742 -45.9561 -45.9124 -45.7915   9.0440  11.9834  12.9269  14.6909
    15.9493  16.5115  16.5561  18.4430  20.6182  26.2570  29.8644

          k = 0.3322 0.3322 0.0000 (  2223 PWs)   bands (ev):

   -85.4728 -45.9500 -45.8582 -45.8559   7.2516  13.9749  14.1496  14.6762
    15.3079  16.0627  18.2405  21.0488  21.3896  23.3498  28.7837

          k = 0.3322 0.3322 0.1172 (  2235 PWs)   bands (ev):

   -85.4730 -45.9515 -45.8582 -45.8559   7.4240  13.5748  14.4218  14.4391
    15.4717  16.0988  18.5574  19.5723  21.3684  25.2135  28.1235

          k = 0.3322 0.3322 0.2343 (  2234 PWs)   bands (ev):

   -85.4731 -45.9539 -45.8581 -45.8559   7.8804  12.8313  14.0625  14.9499
    15.6419  16.1697  17.8950  19.3789  21.2759  26.1218  26.8410

          k = 0.3322 0.3322 0.3515 (  2222 PWs)   bands (ev):

   -85.4730 -45.9548 -45.8580 -45.8558   8.3647  12.1259  13.8507  15.6635
    15.7170  16.2196  16.6696  20.2823  21.1789  24.5028  26.2724

          k = 0.3322 0.4983 0.0000 (  2221 PWs)   bands (ev):

   -85.4679 -45.9450 -45.9058 -45.8521   9.4471  12.2280  14.1280  14.9498
    15.2215  15.7945  17.8757  22.1582  22.8893  24.3905  25.9349

          k = 0.3322 0.4983 0.1172 (  2234 PWs)   bands (ev):

   -85.4680 -45.9466 -45.9058 -45.8520   9.5738  12.3072  13.7291  15.0723
    15.5499  15.9159  17.9254  21.3670  22.0649  24.4635  24.8099

          k = 0.3322 0.4983 0.2343 (  2238 PWs)   bands (ev):

   -85.4681 -45.9491 -45.9058 -45.8520   9.8890  12.4606  13.2299  15.2407
    15.8796  16.4929  17.9173  19.5121  21.6918  22.8761  25.0324

          k = 0.3322 0.4983 0.3515 (  2228 PWs)   bands (ev):

   -85.4681 -45.9496 -45.9056 -45.8519  10.1848  12.5455  12.9226  15.7475
    16.0398  16.9055  17.4424  18.6293  21.1110  22.2062  25.2716

          k = 0.4983 0.4983 0.0000 (  2215 PWs)   bands (ev):

   -85.4630 -45.9401 -45.9006 -45.9001  11.1749  13.2726  14.3606  14.5613
    14.7386  15.5698  17.7492  20.5607  21.9541  23.5366  27.3840

          k = 0.4983 0.4983 0.1172 (  2232 PWs)   bands (ev):

   -85.4631 -45.9418 -45.9006 -45.9001  11.2752  13.1563  13.6232  14.6621
    15.7069  16.0119  17.7974  20.1994  21.6541  23.0164  25.8795

          k = 0.4983 0.4983 0.2343 (  2238 PWs)   bands (ev):

   -85.4633 -45.9445 -45.9006 -45.9002  11.5085  12.9112  13.0063  15.2578
    16.8302  16.8421  18.1203  19.3688  20.5288  22.2598  23.7832

          k = 0.4983 0.4983 0.3515 (  2246 PWs)   bands (ev):

   -85.4632 -45.9452 -45.9004 -45.9000  11.6938  12.6908  12.7768  16.1674
    17.2799  17.4773  18.6733  19.1746  19.2801  21.6158  21.7951

     the Fermi energy is    18.4632 ev

!    total energy              =    -344.06526032 Ry
     estimated scf accuracy    <          4.1E-09 Ry
     smearing contrib. (-TS)   =      -0.00005053 Ry
     internal energy E=F+TS    =    -344.06520979 Ry

     The total energy is F=E-TS. E is the sum of the following terms:
     one-electron contribution =    -218.58247731 Ry
     hartree contribution      =     124.16328141 Ry
     xc contribution           =     -46.30704486 Ry
     ewald contribution        =    -203.33896902 Ry

     convergence has been achieved in   5 iterations

     Forces acting on atoms (cartesian axes, Ry/au):

     atom    1 type  1   force =     0.00000000    0.00000000    0.00000000
     atom    2 type  2   force =     0.00000000    0.00000000    0.00000000

     Total force =     0.000000     Total SCF correction =     0.000000


     Computing stress (Cartesian axis) and pressure

          total   stress  (Ry/bohr**3)                   (kbar)     P=      182.44
   0.00186093   0.00000000   0.00000000          273.75        0.00        0.00
   0.00000000   0.00186093   0.00000000            0.00      273.75        0.00
   0.00000000   0.00000000  -0.00000131            0.00        0.00       -0.19

     Energy error            =      3.2E-05 Ry
     Gradient error          =      0.0E+00 Ry/Bohr
     Cell gradient error     =      1.9E-01 kbar

     bfgs converged in   4 scf cycles and   3 bfgs steps
     (criteria: energy <  1.0E-04 Ry, force <  1.0E-03 Ry/Bohr, cell <  5.0E-01 kbar)

     End of BFGS Geometry Optimization

     Final enthalpy           =    -344.0652603161 Ry

     File ./tmp/SiNi-relax.bfgs deleted, as requested
Begin final coordinates
     new unit-cell volume =    139.91986 a.u.^3 (    20.73398 Ang^3 )
     density =      6.94993 g/cm^3

CELL_PARAMETERS (alat=  5.37330365)
   0.860000000   0.000000000   0.000000000
   0.000000000   0.860000000   0.000000000
   0.000000000   0.000000000   1.219434015

ATOMIC_POSITIONS (crystal)
Si               0.0000000000        0.0000000000        0.0000000000
Ni               0.5000000000        0.5000000000        0.5000000000
End final coordinates



     Writing config-only to output data dir ./tmp/SiNi-relax.save/ :
     XML data file

     Final scf calculation at the relaxed structure.
     The G-vectors are recalculated for the final unit cell
     Results may differ from those at the preceding step.

     G-vector sticks info
     --------------------
     sticks:   dense  smooth     PW     G-vecs:    dense   smooth      PW
     Sum         749     749    221                21839    21839    3547

     Using Slab Decomposition



     bravais-lattice index     =            0
     lattice parameter (alat)  =       5.3733  a.u.
     unit-cell volume          =     139.9199 (a.u.)^3
     number of atoms/cell      =            2
     number of atomic types    =            2
     number of electrons       =        22.00
     number of Kohn-Sham states=           15
     kinetic-energy cutoff     =     110.0000  Ry
     charge density cutoff     =     440.0000  Ry
     scf convergence threshold =      1.0E-08
     mixing beta               =       0.7000
     number of iterations used =            8  plain     mixing
     press convergence thresh. =      5.0E-01
     Exchange-correlation= PBE
                           (   1   4   3   4   0   0   0)

     celldm(1)=   5.373304  celldm(2)=   0.000000  celldm(3)=   0.000000
     celldm(4)=   0.000000  celldm(5)=   0.000000  celldm(6)=   0.000000

     crystal axes: (cart. coord. in units of alat)
               a(1) = (   0.860000   0.000000   0.000000 )  
               a(2) = (   0.000000   0.860000   0.000000 )  
               a(3) = (   0.000000   0.000000   1.219434 )  

     reciprocal axes: (cart. coord. in units 2 pi/alat)
               b(1) = (  1.162791  0.000000  0.000000 )  
               b(2) = (  0.000000  1.162791  0.000000 )  
               b(3) = (  0.000000  0.000000  0.820053 )  


     PseudoPot. # 1 for Si read from file:
     ./PSEUDO/Si.upf
     MD5 check sum: 02fab3f35e82123ef5bf1cb05d5b1a5e
     Pseudo is Norm-conserving + core correction, Zval =  4.0
     Generated using ONCVPSP code by D. R. Hamann
     Using radial grid of 1510 points,  6 beta functions with: 
                l(1) =   0
                l(2) =   0
                l(3) =   1
                l(4) =   1
                l(5) =   2
                l(6) =   2

     PseudoPot. # 2 for Ni read from file:
     ./PSEUDO/Ni.upf
     MD5 check sum: 2b0a79d100e227970886d6963e34175b
     Pseudo is Norm-conserving + core correction, Zval = 18.0
     Generated using ONCVPSP code by D. R. Hamann
     Using radial grid of 1372 points,  6 beta functions with: 
                l(1) =   0
                l(2) =   0
                l(3) =   1
                l(4) =   1
                l(5) =   2
                l(6) =   2

     atomic species   valence    mass     pseudopotential
     Si                4.00    28.08550     Si( 1.00)
     Ni               18.00    58.69340     Ni( 1.00)

     16 Sym. Ops., with inversion, found



   Cartesian axes

     site n.     atom                  positions (alat units)
         1        Si     tau(   1) = (   0.0000000   0.0000000   0.0000000  )
         2        Ni     tau(   2) = (   0.4300000   0.4300000   0.6097170  )

     number of k points=    40  Methfessel-Paxton smearing, width (Ry)=  0.0400
                       cart. coord. in units 2pi/alat
        k(    1) = (   0.0000000   0.0000000   0.0000000), wk =   0.0058309
        k(    2) = (   0.0000000   0.0000000   0.1171504), wk =   0.0116618
        k(    3) = (   0.0000000   0.0000000   0.2343007), wk =   0.0116618
        k(    4) = (   0.0000000   0.0000000   0.3514511), wk =   0.0116618
        k(    5) = (   0.0000000   0.1661130   0.0000000), wk =   0.0233236
        k(    6) = (   0.0000000   0.1661130   0.1171504), wk =   0.0466472
        k(    7) = (   0.0000000   0.1661130   0.2343007), wk =   0.0466472
        k(    8) = (   0.0000000   0.1661130   0.3514511), wk =   0.0466472
        k(    9) = (   0.0000000   0.3322259   0.0000000), wk =   0.0233236
        k(   10) = (   0.0000000   0.3322259   0.1171504), wk =   0.0466472
        k(   11) = (   0.0000000   0.3322259   0.2343007), wk =   0.0466472
        k(   12) = (   0.0000000   0.3322259   0.3514511), wk =   0.0466472
        k(   13) = (   0.0000000   0.4983389   0.0000000), wk =   0.0233236
        k(   14) = (   0.0000000   0.4983389   0.1171504), wk =   0.0466472
        k(   15) = (   0.0000000   0.4983389   0.2343007), wk =   0.0466472
        k(   16) = (   0.0000000   0.4983389   0.3514511), wk =   0.0466472
        k(   17) = (   0.1661130   0.1661130   0.0000000), wk =   0.0233236
        k(   18) = (   0.1661130   0.1661130   0.1171504), wk =   0.0466472
        k(   19) = (   0.1661130   0.1661130   0.2343007), wk =   0.0466472
        k(   20) = (   0.1661130   0.1661130   0.3514511), wk =   0.0466472
        k(   21) = (   0.1661130   0.3322259   0.0000000), wk =   0.0466472
        k(   22) = (   0.1661130   0.3322259   0.1171504), wk =   0.0932945
        k(   23) = (   0.1661130   0.3322259   0.2343007), wk =   0.0932945
        k(   24) = (   0.1661130   0.3322259   0.3514511), wk =   0.0932945
        k(   25) = (   0.1661130   0.4983389   0.0000000), wk =   0.0466472
        k(   26) = (   0.1661130   0.4983389   0.1171504), wk =   0.0932945
        k(   27) = (   0.1661130   0.4983389   0.2343007), wk =   0.0932945
        k(   28) = (   0.1661130   0.4983389   0.3514511), wk =   0.0932945
        k(   29) = (   0.3322259   0.3322259   0.0000000), wk =   0.0233236
        k(   30) = (   0.3322259   0.3322259   0.1171504), wk =   0.0466472
        k(   31) = (   0.3322259   0.3322259   0.2343007), wk =   0.0466472
        k(   32) = (   0.3322259   0.3322259   0.3514511), wk =   0.0466472
        k(   33) = (   0.3322259   0.4983389   0.0000000), wk =   0.0466472
        k(   34) = (   0.3322259   0.4983389   0.1171504), wk =   0.0932945
        k(   35) = (   0.3322259   0.4983389   0.2343007), wk =   0.0932945
        k(   36) = (   0.3322259   0.4983389   0.3514511), wk =   0.0932945
        k(   37) = (   0.4983389   0.4983389   0.0000000), wk =   0.0233236
        k(   38) = (   0.4983389   0.4983389   0.1171504), wk =   0.0466472
        k(   39) = (   0.4983389   0.4983389   0.2343007), wk =   0.0466472
        k(   40) = (   0.4983389   0.4983389   0.3514511), wk =   0.0466472

     Dense  grid:    21839 G-vectors     FFT dimensions: (  32,  32,  45)

     Estimated max dynamical RAM per process >      49.54 MB

     Initial potential from superposition of free atoms

     starting charge      21.9992, renormalised to      22.0000
     Starting wfcs are   14 randomized atomic wfcs +    1 random wfcs

     total cpu time spent up to now is       46.0 secs

     Self-consistent Calculation

     iteration #  1     ecut=   110.00 Ry     beta= 0.70
     Davidson diagonalization with overlap
     c_bands:  1 eigenvalues not converged
     ethr =  1.00E-06,  avg # of iterations = 12.1

     total cpu time spent up to now is       50.6 secs

     total energy              =    -343.96624869 Ry
     estimated scf accuracy    <       0.16384499 Ry

     iteration #  2     ecut=   110.00 Ry     beta= 0.70
     Davidson diagonalization with overlap
     ethr =  7.45E-04,  avg # of iterations =  2.6

     total cpu time spent up to now is       52.6 secs

     total energy              =    -343.80143427 Ry
     estimated scf accuracy    <       2.06146976 Ry

     iteration #  3     ecut=   110.00 Ry     beta= 0.70
     Davidson diagonalization with overlap
     ethr =  7.45E-04,  avg # of iterations =  2.2

     total cpu time spent up to now is       54.5 secs

     total energy              =    -344.06682775 Ry
     estimated scf accuracy    <       0.00629314 Ry

     iteration #  4     ecut=   110.00 Ry     beta= 0.70
     Davidson diagonalization with overlap
     ethr =  2.86E-05,  avg # of iterations =  2.0

     total cpu time spent up to now is       56.0 secs

     total energy              =    -344.06750682 Ry
     estimated scf accuracy    <       0.00049707 Ry

     iteration #  5     ecut=   110.00 Ry     beta= 0.70
     Davidson diagonalization with overlap
     ethr =  2.26E-06,  avg # of iterations =  2.3

     total cpu time spent up to now is       57.5 secs

     total energy              =    -344.06757551 Ry
     estimated scf accuracy    <       0.00000461 Ry

     iteration #  6     ecut=   110.00 Ry     beta= 0.70
     Davidson diagonalization with overlap
     ethr =  2.09E-08,  avg # of iterations =  3.4

     total cpu time spent up to now is       59.3 secs

     total energy              =    -344.06757785 Ry
     estimated scf accuracy    <       0.00000223 Ry

     iteration #  7     ecut=   110.00 Ry     beta= 0.70
     Davidson diagonalization with overlap
     ethr =  1.01E-08,  avg # of iterations =  1.1

     total cpu time spent up to now is       60.8 secs

     total energy              =    -344.06757809 Ry
     estimated scf accuracy    <       0.00000002 Ry

     iteration #  8     ecut=   110.00 Ry     beta= 0.70
     Davidson diagonalization with overlap
     ethr =  8.18E-11,  avg # of iterations =  3.2

     total cpu time spent up to now is       62.7 secs

     End of self-consistent calculation

          k = 0.0000 0.0000 0.0000 (  2725 PWs)   bands (ev):

   -85.4789 -45.9693 -45.7652 -45.7652   3.3730  13.3358  14.2084  14.7842
    16.3350  16.3350  17.1451  21.3679  25.9494  25.9494  26.2554

          k = 0.0000 0.0000 0.1172 (  2738 PWs)   bands (ev):

   -85.4789 -45.9699 -45.7652 -45.7652   3.5980  12.1788  14.2373  15.0743
    16.2890  16.2890  17.1470  22.6149  26.1359  26.2463  26.2463

          k = 0.0000 0.0000 0.2343 (  2734 PWs)   bands (ev):

   -85.4788 -45.9711 -45.7651 -45.7651   4.2237  10.2661  14.3034  15.3016
    16.1890  16.1890  17.1513  25.3604  25.8702  27.0485  27.0485

          k = 0.0000 0.0000 0.3515 (  2718 PWs)   bands (ev):

   -85.4788 -45.9720 -45.7651 -45.7651   4.9783   8.7623  14.3577  15.4089
    16.1122  16.1122  17.1547  25.6597  27.9880  27.9880  28.0687

          k = 0.0000 0.1661 0.0000 (  2739 PWs)   bands (ev):

   -85.4761 -45.9665 -45.7930 -45.7629   3.8769  13.6158  14.2773  14.3369
    16.3783  16.9291  17.1183  21.4563  21.6187  26.4784  29.1088

          k = 0.0000 0.1661 0.1172 (  2729 PWs)   bands (ev):

   -85.4761 -45.9670 -45.7929 -45.7629   4.0957  12.4877  14.3162  14.7593
    16.3351  16.7315  16.9331  21.7795  22.8951  26.7538  28.9973

          k = 0.0000 0.1661 0.2343 (  2721 PWs)   bands (ev):

   -85.4761 -45.9682 -45.7929 -45.7628   4.7011  10.6953  14.4150  15.1078
    16.1998  16.2415  16.9412  22.2686  25.7487  27.4883  28.6834

          k = 0.0000 0.1661 0.3515 (  2721 PWs)   bands (ev):

   -85.4760 -45.9691 -45.7928 -45.7628   5.4194   9.2705  14.5011  15.4080
    15.7721  16.1695  16.9473  22.7162  27.9676  28.3113  28.3320

          k = 0.0000 0.3322 0.0000 (  2723 PWs)   bands (ev):

   -85.4699 -45.9602 -45.8552 -45.7578   5.3606  13.5545  13.7529  14.2759
    16.4767  16.4852  18.3809  18.7783  21.8909  27.9460  28.2623

          k = 0.0000 0.3322 0.1172 (  2724 PWs)   bands (ev):

   -85.4699 -45.9607 -45.8551 -45.7577   5.5595  13.0714  13.6397  14.5344
    16.4365  16.4951  17.5695  18.7099  23.6087  26.8267  28.1623

          k = 0.0000 0.3322 0.2343 (  2724 PWs)   bands (ev):

   -85.4698 -45.9617 -45.8550 -45.7577   6.0991  11.8100  13.8601  14.7220
    16.3593  16.4328  16.5061  19.1572  24.7099  26.9284  28.7116

          k = 0.0000 0.3322 0.3515 (  2735 PWs)   bands (ev):

   -85.4698 -45.9626 -45.8549 -45.7576   6.7052  10.7052  14.1027  14.7564
    15.8645  16.2996  16.5143  19.6417  23.5790  29.2547  29.3294

          k = 0.0000 0.4983 0.0000 (  2720 PWs)   bands (ev):

   -85.4649 -45.9552 -45.9048 -45.7536   7.7341  10.7964  13.4161  14.6480
    16.1616  16.5566  18.0548  21.0217  22.5538  24.4821  28.3125

          k = 0.0000 0.4983 0.1172 (  2720 PWs)   bands (ev):

   -85.4649 -45.9556 -45.9048 -45.7536   7.8897  10.9020  13.3926  14.6311
    16.1679  16.5263  17.7386  19.7014  22.4237  25.4752  30.0208

          k = 0.0000 0.4983 0.2343 (  2743 PWs)   bands (ev):

   -85.4648 -45.9566 -45.9046 -45.7536   8.2777  11.2152  13.2542  14.5473
    16.1820  16.4591  16.7335  18.7762  21.1247  28.2799  30.4923

          k = 0.0000 0.4983 0.3515 (  2745 PWs)   bands (ev):

   -85.4648 -45.9574 -45.9045 -45.7535   8.6373  11.7057  12.8122  14.4273
    16.0270  16.1936  16.4061  18.3659  20.4157  30.6444  30.8474

          k = 0.1661 0.1661 0.0000 (  2729 PWs)   bands (ev):

   -85.4734 -45.9637 -45.7913 -45.7898   4.3756  13.8561  14.2252  14.4035
    16.0202  16.6769  17.9689  21.1025  21.6687  23.6154  32.7034

          k = 0.1661 0.1661 0.1172 (  2720 PWs)   bands (ev):

   -85.4733 -45.9642 -45.7912 -45.7898   4.5883  12.7660  14.4456  14.7326
    15.9102  16.6785  17.3772  21.3272  23.0953  23.9483  31.4424

          k = 0.1661 0.1661 0.2343 (  2731 PWs)   bands (ev):

   -85.4733 -45.9653 -45.7912 -45.7897   5.1735  11.1041  14.5573  15.1595
    15.6626  16.5985  16.7665  21.8632  24.1612  26.5100  29.6962

          k = 0.1661 0.1661 0.3515 (  2726 PWs)   bands (ev):

   -85.4733 -45.9662 -45.7911 -45.7897   5.8571   9.7616  14.6793  15.4448
    15.5322  16.1618  16.7239  22.3505  24.7258  28.5830  28.9269

          k = 0.1661 0.3322 0.0000 (  2719 PWs)   bands (ev):

   -85.4671 -45.9575 -45.8524 -45.7850   5.8423  13.7582  13.8980  14.5220
    15.9436  16.2613  18.4942  19.5474  22.2343  24.1645  28.5926

          k = 0.1661 0.3322 0.1172 (  2726 PWs)   bands (ev):

   -85.4671 -45.9579 -45.8524 -45.7850   6.0351  13.2902  13.8420  14.7620
    15.8398  16.2820  18.2405  18.8511  23.7380  24.6821  27.2257

          k = 0.1661 0.3322 0.2343 (  2722 PWs)   bands (ev):

   -85.4671 -45.9590 -45.8523 -45.7850   6.5552  12.1432  14.0056  14.9886
    15.6798  16.3146  17.0835  19.3223  24.4258  25.3095  27.6180

          k = 0.1661 0.3322 0.3515 (  2726 PWs)   bands (ev):

   -85.4671 -45.9598 -45.8522 -45.7849   7.1316  11.1228  14.1520  15.0247
    15.7760  16.3098  16.3968  19.8596  24.0371  24.8113  30.1548

          k = 0.1661 0.4983 0.0000 (  2725 PWs)   bands (ev):

   -85.4622 -45.9525 -45.9018 -45.7807   8.1797  11.1834  13.6223  14.9387
    15.8530  16.0488  18.0264  21.7451  23.1210  24.7848  26.2718

          k = 0.1661 0.4983 0.1172 (  2723 PWs)   bands (ev):

   -85.4621 -45.9529 -45.9018 -45.7806   8.3284  11.2890  13.5241  14.9597
    15.9191  16.0154  17.8886  20.2138  23.0699  25.1434  26.8759

          k = 0.1661 0.4983 0.2343 (  2733 PWs)   bands (ev):

   -85.4621 -45.9539 -45.9016 -45.7806   8.6989  11.5843  13.2771  14.9032
    15.8618  16.2366  17.2865  18.9488  21.5224  25.9272  28.8673

          k = 0.1661 0.4983 0.3515 (  2739 PWs)   bands (ev):

   -85.4621 -45.9546 -45.9015 -45.7805   9.0437  11.9830  12.9278  14.6939
    15.9472  16.5141  16.5571  18.4428  20.6200  26.2567  29.8636

          k = 0.3322 0.3322 0.0000 (  2727 PWs)   bands (ev):

   -85.4610 -45.9513 -45.8473 -45.8451   7.2515  13.9739  14.1495  14.6788
    15.3077  16.0588  18.2435  21.0480  21.3858  23.3497  28.7811

          k = 0.3322 0.3322 0.1172 (  2718 PWs)   bands (ev):

   -85.4610 -45.9518 -45.8473 -45.8450   7.4239  13.5753  14.4230  14.4384
    15.4736  16.0967  18.5597  19.5714  21.3662  25.2136  28.1234

          k = 0.3322 0.3322 0.2343 (  2725 PWs)   bands (ev):

   -85.4609 -45.9527 -45.8472 -45.8450   7.8802  12.8320  14.0629  14.9498
    15.6460  16.1695  17.8951  19.3800  21.2750  26.1227  26.8413

          k = 0.3322 0.3322 0.3515 (  2720 PWs)   bands (ev):

   -85.4609 -45.9535 -45.8471 -45.8449   8.3644  12.1268  13.8505  15.6641
    15.7218  16.2195  16.6690  20.2818  21.1785  24.5044  26.2728

          k = 0.3322 0.4983 0.0000 (  2715 PWs)   bands (ev):

   -85.4560 -45.9464 -45.8950 -45.8412   9.4473  12.2283  14.1279  14.9521
    15.2215  15.7898  17.8765  22.1566  22.8886  24.3894  25.9329

          k = 0.3322 0.4983 0.1172 (  2721 PWs)   bands (ev):

   -85.4560 -45.9468 -45.8950 -45.8412   9.5739  12.3075  13.7301  15.0719
    15.5514  15.9140  17.9263  21.3669  22.0641  24.4634  24.8081

          k = 0.3322 0.4983 0.2343 (  2724 PWs)   bands (ev):

   -85.4560 -45.9477 -45.8948 -45.8411   9.8890  12.4607  13.2316  15.2410
    15.8806  16.4943  17.9176  19.5128  21.6922  22.8769  25.0314

          k = 0.3322 0.4983 0.3515 (  2723 PWs)   bands (ev):

   -85.4560 -45.9485 -45.8948 -45.8410  10.1846  12.5453  12.9248  15.7500
    16.0381  16.9046  17.4446  18.6292  21.1125  22.2060  25.2707

          k = 0.4983 0.4983 0.0000 (  2707 PWs)   bands (ev):

   -85.4511 -45.9415 -45.8897 -45.8893  11.1759  13.2729  14.3607  14.5612
    14.7384  15.5645  17.7553  20.5600  21.9455  23.5365  27.3846

          k = 0.4983 0.4983 0.1172 (  2715 PWs)   bands (ev):

   -85.4511 -45.9419 -45.8897 -45.8893  11.2761  13.1574  13.6232  14.6608
    15.7074  16.0092  17.8032  20.1993  21.6482  23.0171  25.8797

          k = 0.4983 0.4983 0.2343 (  2721 PWs)   bands (ev):

   -85.4511 -45.9428 -45.8896 -45.8892  11.5091  12.9131  13.0064  15.2568
    16.8330  16.8410  18.1241  19.3688  20.5278  22.2600  23.7837

          k = 0.4983 0.4983 0.3515 (  2735 PWs)   bands (ev):

   -85.4511 -45.9435 -45.8895 -45.8891  11.6937  12.6907  12.7796  16.1651
    17.2853  17.4765  18.6729  19.1755  19.2806  21.6166  21.7945

     the Fermi energy is    18.4632 ev

!    total energy              =    -344.06757810 Ry
     estimated scf accuracy    <          1.7E-09 Ry
     smearing contrib. (-TS)   =      -0.00004346 Ry
     internal energy E=F+TS    =    -344.06753464 Ry

     The total energy is F=E-TS. E is the sum of the following terms:
     one-electron contribution =    -218.59053125 Ry
     hartree contribution      =     124.17012359 Ry
     xc contribution           =     -46.30815795 Ry
     ewald contribution        =    -203.33896902 Ry

     convergence has been achieved in   8 iterations

     Forces acting on atoms (cartesian axes, Ry/au):

     atom    1 type  1   force =     0.00000000    0.00000000    0.00000000
     atom    2 type  2   force =     0.00000000    0.00000000    0.00000000

     Total force =     0.000000     Total SCF correction =     0.000000


     Computing stress (Cartesian axis) and pressure

          total   stress  (Ry/bohr**3)                   (kbar)     P=      213.05
   0.00189679   0.00000000   0.00000000          279.03        0.00        0.00
   0.00000000   0.00189679   0.00000000            0.00      279.03        0.00
   0.00000000   0.00000000   0.00055132            0.00        0.00       81.10


     Writing all to output data dir ./tmp/SiNi-relax.save/ :
     XML data file, charge density, pseudopotentials, collected wavefunctions

     init_run     :      1.59s CPU      1.67s WALL (       2 calls)
     electrons    :     54.95s CPU     56.74s WALL (       5 calls)
     update_pot   :      0.04s CPU      0.04s WALL (       3 calls)
     forces       :      1.10s CPU      1.12s WALL (       5 calls)
     stress       :      4.25s CPU      4.31s WALL (       5 calls)

     Called by init_run:
     wfcinit      :      0.93s CPU      1.00s WALL (       2 calls)
     potinit      :      0.16s CPU      0.17s WALL (       2 calls)
     hinit0       :      0.47s CPU      0.47s WALL (       2 calls)

     Called by electrons:
     c_bands      :     49.38s CPU     50.94s WALL (      34 calls)
     sum_band     :      5.20s CPU      5.41s WALL (      34 calls)
     v_of_rho     :      0.37s CPU      0.38s WALL (      37 calls)
     mix_rho      :      0.04s CPU      0.05s WALL (      34 calls)

     Called by c_bands:
     init_us_2    :      1.44s CPU      1.51s WALL (    3200 calls)
     cegterg      :     47.03s CPU     48.52s WALL (    1360 calls)

     Called by *egterg:
     cdiaghg      :      0.73s CPU      0.77s WALL (    5155 calls)
     h_psi        :     34.74s CPU     36.08s WALL (    5435 calls)
     g_psi        :      0.25s CPU      0.27s WALL (    3995 calls)

     Called by h_psi:
     h_psi:calbec :      4.29s CPU      4.41s WALL (    5435 calls)
     vloc_psi     :     26.23s CPU     27.39s WALL (    5435 calls)
                                        0.00s GPU  (    5435 calls)
     add_vuspsi   :      4.00s CPU      4.09s WALL (    5435 calls)

     General routines
     calbec       :      7.85s CPU      8.04s WALL (    8835 calls)
     fft          :      0.21s CPU      0.21s WALL (     495 calls)
     ffts         :      0.01s CPU      0.02s WALL (      34 calls)
     fftw         :     26.85s CPU     28.52s WALL (  139338 calls)


     PWSCF        :   1m 1.99s CPU   1m 4.02s WALL


   This run was terminated on:  20:34: 5   7Jan2026            

=------------------------------------------------------------------------------=
   JOB DONE.
=------------------------------------------------------------------------------=
