
     Program PWSCF v.7.5 starts on  8Jan2026 at 19:52:33 

     This program is part of the open-source Quantum ESPRESSO suite
     for quantum simulation of materials; please cite
         "P. Giannozzi et al., J. Phys.:Condens. Matter 21 395502 (2009);
         "P. Giannozzi et al., J. Phys.:Condens. Matter 29 465901 (2017);
         "P. Giannozzi et al., J. Chem. Phys. 152 154105 (2020);
          URL http://www.quantum-espresso.org", 
     in publications or presentations arising from this work. More details at
     http://www.quantum-espresso.org/quote

     Serial version
     903 MiB available memory on the printing compute node when the environment starts

     Waiting for input...
     Reading input from standard input

     Current dimensions of program PWSCF are:
     Max number of different atomic species (ntypx) = 10
     Max number of k-points (npk) =  40000
     Max angular momentum in pseudopotentials (lmaxx) =  4
     Message from routine setup:
     using ibrav=0 with symmetry is DISCOURAGED, use correct ibrav instead


     G-vector sticks info
     --------------------
     sticks:   dense  smooth     PW     G-vecs:    dense   smooth      PW
     Sum         593     593    185                16425    16425    2839

     Using Slab Decomposition



     bravais-lattice index     =            0
     lattice parameter (alat)  =       5.3818  a.u.
     unit-cell volume          =     121.9425 (a.u.)^3
     number of atoms/cell      =            2
     number of atomic types    =            2
     number of electrons       =        22.00
     number of Kohn-Sham states=           15
     kinetic-energy cutoff     =     100.0000  Ry
     charge density cutoff     =     400.0000  Ry
     scf convergence threshold =      1.0E-06
     mixing beta               =       0.7000
     number of iterations used =            8  plain     mixing
     energy convergence thresh.=      1.0E-04
     force convergence thresh. =      1.0E-03
     press convergence thresh. =      5.0E-01
     Exchange-correlation= PBE
                           (   1   4   3   4   0   0   0)
     nstep                     =           50


     celldm(1)=   5.381766  celldm(2)=   0.000000  celldm(3)=   0.000000
     celldm(4)=   0.000000  celldm(5)=   0.000000  celldm(6)=   0.000000

     crystal axes: (cart. coord. in units of alat)
               a(1) = (   0.800000   0.000000   0.000000 )  
               a(2) = (   0.000000   0.800000   0.000000 )  
               a(3) = (   0.000000   0.000000   1.222365 )  

     reciprocal axes: (cart. coord. in units 2 pi/alat)
               b(1) = (  1.250000  0.000000  0.000000 )  
               b(2) = (  0.000000  1.250000  0.000000 )  
               b(3) = (  0.000000  0.000000  0.818087 )  


     PseudoPot. # 1 for Si read from file:
     ./PSEUDO/Si.upf
     MD5 check sum: 02fab3f35e82123ef5bf1cb05d5b1a5e
     Pseudo is Norm-conserving + core correction, Zval =  4.0
     Generated using ONCVPSP code by D. R. Hamann
     Using radial grid of 1510 points,  6 beta functions with: 
                l(1) =   0
                l(2) =   0
                l(3) =   1
                l(4) =   1
                l(5) =   2
                l(6) =   2

     PseudoPot. # 2 for Ni read from file:
     ./PSEUDO/Ni.upf
     MD5 check sum: 2b0a79d100e227970886d6963e34175b
     Pseudo is Norm-conserving + core correction, Zval = 18.0
     Generated using ONCVPSP code by D. R. Hamann
     Using radial grid of 1372 points,  6 beta functions with: 
                l(1) =   0
                l(2) =   0
                l(3) =   1
                l(4) =   1
                l(5) =   2
                l(6) =   2

     atomic species   valence    mass     pseudopotential
     Si                4.00    28.08550     Si( 1.00)
     Ni               18.00    58.69340     Ni( 1.00)

     16 Sym. Ops., with inversion, found



   Cartesian axes

     site n.     atom                  positions (alat units)
         1        Si     tau(   1) = (   0.0000000   0.0000000   0.0000000  )
         2        Ni     tau(   2) = (   0.4000000   0.4000000   0.6111823  )

     number of k points=    40  Methfessel-Paxton smearing, width (Ry)=  0.0400
                       cart. coord. in units 2pi/alat
        k(    1) = (   0.0000000   0.0000000   0.0000000), wk =   0.0092593
        k(    2) = (   0.0000000   0.0000000   0.1363478), wk =   0.0185185
        k(    3) = (   0.0000000   0.0000000   0.2726955), wk =   0.0185185
        k(    4) = (   0.0000000   0.0000000  -0.4090433), wk =   0.0092593
        k(    5) = (   0.0000000   0.2083333   0.0000000), wk =   0.0370370
        k(    6) = (   0.0000000   0.2083333   0.1363478), wk =   0.0740741
        k(    7) = (   0.0000000   0.2083333   0.2726955), wk =   0.0740741
        k(    8) = (   0.0000000   0.2083333  -0.4090433), wk =   0.0370370
        k(    9) = (   0.0000000   0.4166667   0.0000000), wk =   0.0370370
        k(   10) = (   0.0000000   0.4166667   0.1363478), wk =   0.0740741
        k(   11) = (   0.0000000   0.4166667   0.2726955), wk =   0.0740741
        k(   12) = (   0.0000000   0.4166667  -0.4090433), wk =   0.0370370
        k(   13) = (   0.0000000  -0.6250000   0.0000000), wk =   0.0185185
        k(   14) = (   0.0000000  -0.6250000   0.1363478), wk =   0.0370370
        k(   15) = (   0.0000000  -0.6250000   0.2726955), wk =   0.0370370
        k(   16) = (   0.0000000  -0.6250000  -0.4090433), wk =   0.0185185
        k(   17) = (   0.2083333   0.2083333   0.0000000), wk =   0.0370370
        k(   18) = (   0.2083333   0.2083333   0.1363478), wk =   0.0740741
        k(   19) = (   0.2083333   0.2083333   0.2726955), wk =   0.0740741
        k(   20) = (   0.2083333   0.2083333  -0.4090433), wk =   0.0370370
        k(   21) = (   0.2083333   0.4166667   0.0000000), wk =   0.0740741
        k(   22) = (   0.2083333   0.4166667   0.1363478), wk =   0.1481481
        k(   23) = (   0.2083333   0.4166667   0.2726955), wk =   0.1481481
        k(   24) = (   0.2083333   0.4166667  -0.4090433), wk =   0.0740741
        k(   25) = (   0.2083333  -0.6250000   0.0000000), wk =   0.0370370
        k(   26) = (   0.2083333  -0.6250000   0.1363478), wk =   0.0740741
        k(   27) = (   0.2083333  -0.6250000   0.2726955), wk =   0.0740741
        k(   28) = (   0.2083333  -0.6250000  -0.4090433), wk =   0.0370370
        k(   29) = (   0.4166667   0.4166667   0.0000000), wk =   0.0370370
        k(   30) = (   0.4166667   0.4166667   0.1363478), wk =   0.0740741
        k(   31) = (   0.4166667   0.4166667   0.2726955), wk =   0.0740741
        k(   32) = (   0.4166667   0.4166667  -0.4090433), wk =   0.0370370
        k(   33) = (   0.4166667  -0.6250000   0.0000000), wk =   0.0370370
        k(   34) = (   0.4166667  -0.6250000   0.1363478), wk =   0.0740741
        k(   35) = (   0.4166667  -0.6250000   0.2726955), wk =   0.0740741
        k(   36) = (   0.4166667  -0.6250000  -0.4090433), wk =   0.0370370
        k(   37) = (  -0.6250000  -0.6250000   0.0000000), wk =   0.0092593
        k(   38) = (  -0.6250000  -0.6250000   0.1363478), wk =   0.0185185
        k(   39) = (  -0.6250000  -0.6250000   0.2726955), wk =   0.0185185
        k(   40) = (  -0.6250000  -0.6250000  -0.4090433), wk =   0.0092593

     Dense  grid:    16425 G-vectors     FFT dimensions: (  27,  27,  45)

     Estimated max dynamical RAM per process >      38.39 MB

     Initial potential from superposition of free atoms

     starting charge      21.9992, renormalised to      22.0000
     Starting wfcs are   14 randomized atomic wfcs +    1 random wfcs

     total cpu time spent up to now is        1.7 secs

     Self-consistent Calculation

     iteration #  1     ecut=   100.00 Ry     beta= 0.70
     Davidson diagonalization with overlap
     ethr =  1.00E-02,  avg # of iterations =  3.6

     Threshold (ethr) on eigenvalues was too large:
     Diagonalizing with lowered threshold

     Davidson diagonalization with overlap
     ethr =  4.30E-04,  avg # of iterations =  1.4

     total cpu time spent up to now is        4.5 secs

     total energy              =    -343.94509139 Ry
     estimated scf accuracy    <       0.09055303 Ry

     iteration #  2     ecut=   100.00 Ry     beta= 0.70
     Davidson diagonalization with overlap
     ethr =  4.12E-04,  avg # of iterations =  2.9

     total cpu time spent up to now is        6.0 secs

     total energy              =    -343.88091504 Ry
     estimated scf accuracy    <       0.82718741 Ry

     iteration #  3     ecut=   100.00 Ry     beta= 0.70
     Davidson diagonalization with overlap
     ethr =  4.12E-04,  avg # of iterations =  2.3

     total cpu time spent up to now is        7.4 secs

     total energy              =    -343.99713102 Ry
     estimated scf accuracy    <       0.00271855 Ry

     iteration #  4     ecut=   100.00 Ry     beta= 0.70
     Davidson diagonalization with overlap
     ethr =  1.24E-05,  avg # of iterations =  2.5

     total cpu time spent up to now is        8.7 secs

     total energy              =    -343.99746736 Ry
     estimated scf accuracy    <       0.00016867 Ry

     iteration #  5     ecut=   100.00 Ry     beta= 0.70
     Davidson diagonalization with overlap
     ethr =  7.67E-07,  avg # of iterations =  2.1

     total cpu time spent up to now is        9.8 secs

     total energy              =    -343.99749282 Ry
     estimated scf accuracy    <       0.00000152 Ry

     iteration #  6     ecut=   100.00 Ry     beta= 0.70
     Davidson diagonalization with overlap
     ethr =  6.90E-09,  avg # of iterations =  3.5

     total cpu time spent up to now is       11.3 secs

     End of self-consistent calculation

          k = 0.0000 0.0000 0.0000 (  2061 PWs)   bands (ev):

   -82.7197 -43.2624 -42.9239 -42.9239   5.0312  15.2549  16.4264  16.4499
    19.2497  19.2497  20.3136  23.8323  29.7616  31.2873  31.2873

          k = 0.0000 0.0000 0.1363 (  2061 PWs)   bands (ev):

   -82.7197 -43.2632 -42.9239 -42.9239   5.3301  13.6588  16.4805  17.0722
    19.2079  19.2079  20.3151  25.2463  29.5890  31.6686  31.6686

          k = 0.0000 0.0000 0.2727 (  2061 PWs)   bands (ev):

   -82.7196 -43.2649 -42.9239 -42.9239   6.1142  11.5030  16.5430  17.4419
    19.1264  19.1264  20.3182  28.3043  29.2551  32.6593  32.6593

          k = 0.0000 0.0000-0.4090 (  2036 PWs)   bands (ev):

   -82.7196 -43.2657 -42.9238 -42.9238   6.7121  10.3973  16.5748  17.5438
    19.0866  19.0866  20.3198  29.0933  30.4461  33.4323  33.4323

          k = 0.0000 0.2083 0.0000 (  2066 PWs)   bands (ev):

   -82.7104 -43.2540 -43.0016 -42.9174   5.8183  15.7588  16.0987  16.6474
    19.3240  19.9511  20.0047  23.9849  24.7444  32.0547  34.0877

          k = 0.0000 0.2083 0.1363 (  2055 PWs)   bands (ev):

   -82.7104 -43.2548 -43.0015 -42.9173   6.1031  14.1932  16.6959  16.8967
    19.2848  19.4366  19.9539  24.9269  25.7591  32.4018  33.5860

          k = 0.0000 0.2083 0.2727 (  2046 PWs)   bands (ev):

   -82.7104 -43.2563 -43.0014 -42.9173   6.8402  12.2308  16.7968  17.4357
    18.6956  19.2085  19.9592  25.4782  29.0306  32.4628  33.2749

          k = 0.0000 0.2083-0.4090 (  2034 PWs)   bands (ev):

   -82.7104 -43.2571 -43.0014 -42.9173   7.3841  11.2213  16.8482  17.7813
    18.2533  19.1713  19.9618  25.7769  31.1807  31.8298  33.8998

          k = 0.0000 0.4167 0.0000 (  2058 PWs)   bands (ev):

   -82.6919 -43.2372 -43.1556 -42.9043   8.1060  15.5623  15.5734  16.6815
    19.2944  19.4749  21.2630  21.9724  24.6545  30.3546  34.1542

          k = 0.0000 0.4167 0.1363 (  2047 PWs)   bands (ev):

   -82.6919 -43.2379 -43.1555 -42.9043   8.3455  14.9935  15.7573  16.8536
    19.2973  19.4419  20.1110  21.7491  26.6375  29.2208  34.4156

          k = 0.0000 0.4167 0.2727 (  2064 PWs)   bands (ev):

   -82.6919 -43.2392 -43.1553 -42.9042   8.9330  14.0459  15.8511  17.0960
    18.7264  19.3034  19.3765  22.0334  26.7220  31.0117  35.0100

          k = 0.0000 0.4167-0.4090 (  2058 PWs)   bands (ev):

   -82.6919 -43.2398 -43.1552 -42.9042   9.3212  13.4749  15.8871  17.1932
    18.2849  19.3075  19.3433  22.2414  26.0861  33.3807  35.3615

          k = 0.0000-0.6250 0.0000 (  2062 PWs)   bands (ev):

   -82.6827 -43.2319 -43.2288 -42.8977  11.4329  11.9090  15.3439  17.0276
    18.9932  19.5515  21.3509  24.0851  25.3831  26.9679  31.4986

          k = 0.0000-0.6250 0.1363 (  2066 PWs)   bands (ev):

   -82.6827 -43.2318 -43.2294 -42.8977  11.7410  11.8475  15.5645  16.9652
    18.9963  19.5209  20.4537  23.5765  23.8368  29.2941  33.3385

          k = 0.0000-0.6250 0.2727 (  2050 PWs)   bands (ev):

   -82.6826 -43.2316 -43.2306 -42.8976  11.7346  12.5518  16.0680  16.6161
    18.8903  19.0025  19.4605  21.8157  23.6628  32.6304  37.3802

          k = 0.0000-0.6250-0.4090 (  2048 PWs)   bands (ev):

   -82.6826 -43.2315 -43.2312 -42.8976  11.6823  13.1800  16.0987  16.3737
    18.3184  19.0056  19.4307  21.0937  23.6240  35.2886  37.5084

          k = 0.2083 0.2083 0.0000 (  2062 PWs)   bands (ev):

   -82.7013 -43.2457 -42.9967 -42.9919   6.5924  16.0895  16.1803  16.9322
    18.6702  19.5240  21.1896  24.0477  24.3406  27.9585  36.7431

          k = 0.2083 0.2083 0.1363 (  2060 PWs)   bands (ev):

   -82.7013 -43.2464 -42.9966 -42.9919   6.8631  14.6625  16.9853  17.0110
    18.5134  19.5182  20.3023  24.3560  26.2014  28.3275  34.9371

          k = 0.2083 0.2083 0.2727 (  2051 PWs)   bands (ev):

   -82.7012 -43.2479 -42.9965 -42.9919   7.5541  12.9121  17.1201  17.6134
    18.1945  19.2726  19.6063  25.0173  28.0964  30.6897  32.9889

          k = 0.2083 0.2083-0.4090 (  2050 PWs)   bands (ev):

   -82.7012 -43.2486 -42.9965 -42.9918   8.0488  12.0014  17.2160  17.9716
    18.0159  18.8441  19.5771  25.3889  28.5303  32.1951  33.1425

          k = 0.2083 0.4167 0.0000 (  2056 PWs)   bands (ev):

   -82.6829 -43.2292 -43.1470 -42.9798   8.8384  15.8698  15.8798  17.1895
    18.5176  18.9438  21.3218  23.2168  25.3546  28.7756  30.8513

          k = 0.2083 0.4167 0.1363 (  2064 PWs)   bands (ev):

   -82.6829 -43.2298 -43.1469 -42.9797   9.0629  15.4143  15.9475  17.3952
    18.3798  19.0390  21.0692  21.9994  27.3680  29.1058  29.6350

          k = 0.2083 0.4167 0.2727 (  2056 PWs)   bands (ev):

   -82.6828 -43.2310 -43.1467 -42.9797   9.6067  14.5429  16.0535  17.6301
    18.2269  19.1904  19.7495  22.2468  27.4379  28.6251  32.2226

          k = 0.2083 0.4167-0.4090 (  2062 PWs)   bands (ev):

   -82.6828 -43.2317 -43.1466 -42.9796   9.9581  14.0403  16.0962  17.6622
    18.3321  19.0955  19.2903  22.5531  26.6573  28.8470  34.8632

          k = 0.2083-0.6250 0.0000 (  2052 PWs)   bands (ev):

   -82.6737 -43.2226 -43.2209 -42.9725  12.1713  12.4221  15.6934  17.6525
    18.3477  18.6219  21.2977  25.7068  26.5075  27.0143  31.5102

          k = 0.2083-0.6250 0.1363 (  2058 PWs)   bands (ev):

   -82.6737 -43.2225 -43.2214 -42.9725  12.3890  12.4455  15.7271  17.6256
    18.5327  18.5893  20.9191  24.3678  24.7453  29.0400  33.2330

          k = 0.2083-0.6250 0.2727 (  2054 PWs)   bands (ev):

   -82.6736 -43.2226 -43.2223 -42.9724  12.3218  13.1325  15.8109  17.3779
    18.4477  19.2522  19.9154  22.3571  23.8880  30.3596  32.2848

          k = 0.2083-0.6250-0.4090 (  2048 PWs)   bands (ev):

   -82.6736 -43.2232 -43.2222 -42.9724  12.2879  13.6068  15.8601  17.0445
    18.5232  19.3273  19.9203  21.2260  23.6901  30.7415  32.4925

          k = 0.4167 0.4167 0.0000 (  2062 PWs)   bands (ev):

   -82.6648 -43.2130 -43.1320 -43.1272  10.9270  16.0230  16.4264  17.5202
    17.6295  18.9316  21.0395  25.0716  25.2783  27.4430  30.8935

          k = 0.4167 0.4167 0.1363 (  2060 PWs)   bands (ev):

   -82.6647 -43.2136 -43.1319 -43.1272  11.1010  15.7010  16.7081  16.7873
    18.4411  19.0759  21.3854  23.2272  24.9967  28.9934  30.9297

          k = 0.4167 0.4167 0.2727 (  2059 PWs)   bands (ev):

   -82.6647 -43.2148 -43.1317 -43.1271  11.5027  15.1882  16.1177  17.6088
    18.9473  19.3288  20.9232  22.4022  24.5276  28.2761  29.9029

          k = 0.4167 0.4167-0.4090 (  2058 PWs)   bands (ev):

   -82.6647 -43.2153 -43.1317 -43.1271  11.7441  14.9187  15.9112  18.6330
    19.0854  19.1640  19.6601  23.2334  24.2821  26.9376  30.2436

          k = 0.4167-0.6250 0.0000 (  2074 PWs)   bands (ev):

   -82.6557 -43.2050 -43.2039 -43.1209  13.6285  14.2597  16.4913  17.4202
    17.5046  18.7106  21.0823  26.3722  26.4397  27.1640  29.1006

          k = 0.4167-0.6250 0.1363 (  2060 PWs)   bands (ev):

   -82.6556 -43.2055 -43.2038 -43.1209  13.6888  14.3539  15.8658  17.4695
    18.4736  18.9297  21.0920  25.6960  25.7582  26.3665  27.4971

          k = 0.4167-0.6250 0.2727 (  2064 PWs)   bands (ev):

   -82.6556 -43.2066 -43.2037 -43.1208  13.7980  14.4863  15.3094  18.0098
    19.2460  20.0343  20.7257  23.6779  24.2525  25.9605  26.6909

          k = 0.4167-0.6250-0.4090 (  2064 PWs)   bands (ev):

   -82.6556 -43.2072 -43.2037 -43.1208  13.8413  14.5223  15.1389  18.9262
    19.4438  19.6839  21.5896  21.9808  23.8168  25.7363  26.4452

          k =-0.6250-0.6250 0.0000 (  2044 PWs)   bands (ev):

   -82.6466 -43.1970 -43.1945 -43.1945  14.3231  16.9574  16.9574  17.0188
    17.3574  17.3574  21.1516  24.4470  24.6432  27.3058  32.3788

          k =-0.6250-0.6250 0.1363 (  2080 PWs)   bands (ev):

   -82.6466 -43.1975 -43.1945 -43.1945  14.4417  15.9413  15.9413  17.3645
    18.7982  18.7982  21.1518  23.8569  24.0006  27.5583  29.0938

          k =-0.6250-0.6250 0.2727 (  2076 PWs)   bands (ev):

   -82.6466 -43.1986 -43.1944 -43.1944  14.7009  15.2093  15.2093  18.3091
    20.7894  20.7894  21.1522  22.4244  22.9597  26.0441  26.0441

          k =-0.6250-0.6250-0.4090 (  2064 PWs)   bands (ev):

   -82.6466 -43.1991 -43.1944 -43.1944  14.8440  14.9614  14.9614  19.1513
    21.1524  21.3416  22.4959  22.6637  22.6637  23.8235  23.8235

     the Fermi energy is    21.5608 ev

!    total energy              =    -343.99749324 Ry
     estimated scf accuracy    <       0.00000057 Ry
     smearing contrib. (-TS)   =       0.00098006 Ry
     internal energy E=F+TS    =    -343.99847330 Ry

     The total energy is F=E-TS. E is the sum of the following terms:
     one-electron contribution =    -208.48804984 Ry
     hartree contribution      =     121.38754676 Ry
     xc contribution           =     -46.55140904 Ry
     ewald contribution        =    -210.34656118 Ry

     convergence has been achieved in   6 iterations

     Forces acting on atoms (cartesian axes, Ry/au):

     atom    1 type  1   force =     0.00000000    0.00000000    0.00000000
     atom    2 type  2   force =     0.00000000    0.00000000    0.00000000

     Total force =     0.000000     Total SCF correction =     0.000000


     Computing stress (Cartesian axis) and pressure

          total   stress  (Ry/bohr**3)                   (kbar)     P=      745.68
   0.00637384   0.00000000   0.00000000          937.62        0.00        0.00
   0.00000000   0.00637384   0.00000000            0.00      937.62        0.00
   0.00000000   0.00000000   0.00245943            0.00        0.00      361.79


     BFGS Geometry Optimization
     Energy error            =      1.8E-02 Ry
     Gradient error          =      0.0E+00 Ry/Bohr
     Cell gradient error     =      3.6E+02 kbar

     number of scf cycles    =   1
     number of bfgs steps    =   0

     enthalpy           new  =    -343.9974932428 Ry

     new trust radius        =       0.1357943619 bohr
     new conv_thr            =       0.0000010000 Ry

     new unit-cell volume =    129.44027 a.u.^3 (    19.18107 Ang^3 )
     density =      7.51260 g/cm^3

CELL_PARAMETERS (alat=  5.38176635)
   0.800000000   0.000000000   0.000000000
   0.000000000   0.800000000   0.000000000
   0.000000000   0.000000000   1.297522551

ATOMIC_POSITIONS (crystal)
Si               0.0000000000        0.0000000000        0.0000000000
Ni               0.5000000000        0.5000000000        0.5000000000



     Writing config-only to output data dir ./tmp/SiNi-vc-relax.save/ :
     XML data file
     NEW-OLD atomic charge density approx. for the potential
     New effective cutoffs (rho, wfc):  397.24   99.98

     total cpu time spent up to now is       12.2 secs

     Self-consistent Calculation

     iteration #  1     ecut=   100.00 Ry     beta= 0.70
     Davidson diagonalization with overlap
     ethr =  1.00E-06,  avg # of iterations =  8.2

     total cpu time spent up to now is       15.4 secs

     total energy              =    -344.00696117 Ry
     estimated scf accuracy    <       0.00262861 Ry

     iteration #  2     ecut=   100.00 Ry     beta= 0.70
     Davidson diagonalization with overlap
     ethr =  1.19E-05,  avg # of iterations =  2.5

     total cpu time spent up to now is       16.9 secs

     total energy              =    -344.00499709 Ry
     estimated scf accuracy    <       0.02663989 Ry

     iteration #  3     ecut=   100.00 Ry     beta= 0.70
     Davidson diagonalization with overlap
     ethr =  1.19E-05,  avg # of iterations =  2.2

     total cpu time spent up to now is       18.3 secs

     total energy              =    -344.00840725 Ry
     estimated scf accuracy    <       0.00006808 Ry

     iteration #  4     ecut=   100.00 Ry     beta= 0.70
     Davidson diagonalization with overlap
     ethr =  3.09E-07,  avg # of iterations =  2.2

     total cpu time spent up to now is       19.6 secs

     total energy              =    -344.00842282 Ry
     estimated scf accuracy    <       0.00000848 Ry

     iteration #  5     ecut=   100.00 Ry     beta= 0.70
     Davidson diagonalization with overlap
     ethr =  3.85E-08,  avg # of iterations =  1.8

     total cpu time spent up to now is       20.7 secs

     End of self-consistent calculation

          k = 0.0000 0.0000 0.0000 (  2061 PWs)   bands (ev):

   -83.9157 -44.4189 -44.1223 -44.1223   4.1146  14.0847  14.5251  15.3825
    18.1757  18.1757  19.1672  21.3765  28.4241  30.3471  30.3471

          k = 0.0000 0.0000 0.1284 (  2061 PWs)   bands (ev):

   -83.9158 -44.4194 -44.1223 -44.1223   4.3610  12.2688  15.4010  15.5704
    18.1499  18.1499  19.1679  22.6128  28.3037  30.6500  30.6500

          k = 0.0000 0.0000 0.2569 (  2061 PWs)   bands (ev):

   -83.9157 -44.4200 -44.1223 -44.1223   4.9883  10.3122  15.4385  16.0401
    18.0993  18.0993  19.1693  25.4503  28.0698  31.4113  31.4113

          k = 0.0000 0.0000-0.3853 (  2036 PWs)   bands (ev):

   -83.9157 -44.4204 -44.1223 -44.1223   5.4332   9.3896  15.4575  16.1574
    18.0744  18.0744  19.1701  27.6525  27.9560  31.9483  31.9483

          k = 0.0000 0.2083 0.0000 (  2066 PWs)   bands (ev):

   -83.9066 -44.4108 -44.1990 -44.1159   4.8985  14.4985  14.6385  15.6241
    18.2440  18.6167  18.8241  21.5874  23.4331  31.0762  32.7496

          k = 0.0000 0.2083 0.1284 (  2055 PWs)   bands (ev):

   -83.9066 -44.4111 -44.1989 -44.1159   5.1328  12.8430  15.5696  15.7031
    18.1473  18.2202  18.8256  23.1324  23.6371  31.3482  32.2264

          k = 0.0000 0.2083 0.2569 (  2046 PWs)   bands (ev):

   -83.9066 -44.4118 -44.1989 -44.1158   5.7219  11.0585  15.6951  16.1918
    17.5607  18.1736  18.8284  24.0347  26.2631  31.1755  32.0109

          k = 0.0000 0.2083-0.3853 (  2034 PWs)   bands (ev):

   -83.9066 -44.4120 -44.1989 -44.1158   6.1288  10.2101  15.7266  16.4440
    17.2637  18.1506  18.8298  24.2636  28.6443  30.6726  32.4488

          k = 0.0000 0.4167 0.0000 (  2058 PWs)   bands (ev):

   -83.8883 -44.3944 -44.3510 -44.1030   7.1858  14.3518  14.7570  15.5635
    18.1968  18.3825  19.8023  20.1876  22.3573  28.3432  31.7192

          k = 0.0000 0.4167 0.1284 (  2047 PWs)   bands (ev):

   -83.8883 -44.3946 -44.3510 -44.1030   7.3816  13.8523  14.8821  15.7201
    18.1985  18.3630  18.5578  20.1379  24.3922  27.2700  33.3088

          k = 0.0000 0.4167 0.2569 (  2064 PWs)   bands (ev):

   -83.8883 -44.3952 -44.3509 -44.1030   7.8511  12.9636  14.9244  15.9710
    17.3923  18.2020  18.3241  20.3146  25.3212  28.3383  33.7484

          k = 0.0000 0.4167-0.3853 (  2058 PWs)   bands (ev):

   -83.8882 -44.3954 -44.3509 -44.1030   8.1483  12.4651  14.9214  16.0732
    17.0551  18.2040  18.3047  20.4295  24.8361  31.0998  33.2579

          k = 0.0000-0.6250 0.0000 (  2062 PWs)   bands (ev):

   -83.8791 -44.4265 -44.3862 -44.0966  10.5502  11.0084  14.2464  15.8979
    17.9070  18.4526  19.9240  22.2041  23.4388  24.8774  28.9157

          k = 0.0000-0.6250 0.1284 (  2066 PWs)   bands (ev):

   -83.8791 -44.4264 -44.3864 -44.0966  10.8084  10.9373  14.4960  15.8341
    17.9087  18.4349  18.9394  21.7038  22.2740  27.0720  30.4736

          k = 0.0000-0.6250 0.2569 (  2050 PWs)   bands (ev):

   -83.8791 -44.4263 -44.3868 -44.0965  10.8100  11.4740  15.0748  15.5022
    17.4845  17.9120  18.3999  19.9788  22.3219  30.2269  34.0077

          k = 0.0000-0.6250-0.3853 (  2048 PWs)   bands (ev):

   -83.8791 -44.4263 -44.3871 -44.0965  10.7524  11.9609  15.0593  15.4441
    16.9979  17.9137  18.3826  19.2345  22.3331  33.3136  33.9993

          k = 0.2083 0.2083 0.0000 (  2062 PWs)   bands (ev):

   -83.8975 -44.4027 -44.1941 -44.1896   5.6712  14.6171  15.1238  15.9194
    17.6162  18.4146  19.6296  21.9497  22.7764  26.6547  34.8975

          k = 0.2083 0.2083 0.1284 (  2060 PWs)   bands (ev):

   -83.8975 -44.4030 -44.1941 -44.1896   5.8935  13.3592  15.8244  15.9582
    17.4962  18.3949  18.8686  23.0224  23.7451  26.8697  33.3978

          k = 0.2083 0.2083 0.2569 (  2051 PWs)   bands (ev):

   -83.8975 -44.4036 -44.1941 -44.1896   6.4455  11.7632  16.0506  16.3820
    17.2564  18.0295  18.4793  23.5442  26.3396  28.0670  31.7125

          k = 0.2083 0.2083-0.3853 (  2050 PWs)   bands (ev):

   -83.8975 -44.4039 -44.1940 -44.1896   6.8176  10.9919  16.1085  16.6511
    17.1310  17.7157  18.4654  23.8296  26.9196  31.0385  31.0573

          k = 0.2083 0.4167 0.0000 (  2056 PWs)   bands (ev):

   -83.8793 -44.3865 -44.3426 -44.1776   7.9220  14.6749  15.0618  16.1351
    17.4362  17.8394  19.8857  21.3778  23.1136  27.3953  28.8813

          k = 0.2083 0.4167 0.1284 (  2064 PWs)   bands (ev):

   -83.8793 -44.3868 -44.3426 -44.1776   8.1056  14.2763  15.1058  16.3026
    17.3082  17.9257  19.5308  20.3676  25.2395  27.5631  27.7594

          k = 0.2083 0.4167 0.2569 (  2056 PWs)   bands (ev):

   -83.8793 -44.3873 -44.3425 -44.1776   8.5408  13.4929  15.1730  16.5198
    17.1008  18.0583  18.4342  20.5658  26.0342  27.1331  29.5509

          k = 0.2083 0.4167-0.3853 (  2062 PWs)   bands (ev):

   -83.8793 -44.3875 -44.3425 -44.1776   8.8112  13.0576  15.1976  16.5811
    17.0584  17.9565  18.1918  20.7668  25.4083  27.3708  33.3444

          k = 0.2083-0.6250 0.0000 (  2052 PWs)   bands (ev):

   -83.8702 -44.4174 -44.3784 -44.1705  11.2822  11.5579  14.6130  16.5593
    17.2175  17.5312  19.8952  23.7783  24.6649  24.9742  29.1109

          k = 0.2083-0.6250 0.1284 (  2058 PWs)   bands (ev):

   -83.8702 -44.4173 -44.3787 -44.1705  11.5103  11.5121  14.7032  16.5276
    17.4087  17.4414  19.4696  22.5488  23.1156  27.1610  30.4680

          k = 0.2083-0.6250 0.2569 (  2054 PWs)   bands (ev):

   -83.8702 -44.4173 -44.3791 -44.1705  11.4203  12.0804  14.8820  16.2954
    17.2751  17.9945  18.5827  20.6295  22.5496  28.8166  30.9253

          k = 0.2083-0.6250-0.3853 (  2048 PWs)   bands (ev):

   -83.8702 -44.4172 -44.3793 -44.1705  11.3774  12.4609  14.9704  15.9899
    17.2303  18.1942  18.7801  19.3820  22.4179  29.3116  31.0808

          k = 0.4167 0.4167 0.0000 (  2062 PWs)   bands (ev):

   -83.8613 -44.3708 -44.3280 -44.3235  10.0356  15.1463  15.3087  16.4965
    16.7537  17.8693  19.6763  23.3201  23.5396  25.2758  29.4408

          k = 0.4167 0.4167 0.1284 (  2060 PWs)   bands (ev):

   -83.8613 -44.3710 -44.3279 -44.3235  10.1779  14.7431  15.7476  15.8435
    17.4078  17.9830  19.9681  21.4606  23.4636  27.0282  29.2014

          k = 0.4167 0.4167 0.2569 (  2059 PWs)   bands (ev):

   -83.8613 -44.3715 -44.3279 -44.3235  10.5016  14.2644  15.3219  16.4850
    17.8562  18.1673  19.4551  20.7996  23.0311  26.8818  28.3741

          k = 0.4167 0.4167-0.3853 (  2058 PWs)   bands (ev):

   -83.8613 -44.3717 -44.3279 -44.3235  10.6911  14.0301  15.1390  17.3296
    17.8428  17.9784  18.5823  21.4162  22.8079  25.8019  28.8364

          k = 0.4167-0.6250 0.0000 (  2074 PWs)   bands (ev):

   -83.8523 -44.3992 -44.3629 -44.3173  12.8590  13.3647  15.4524  16.3829
    16.4026  17.7325  19.7745  24.9692  25.0025  25.2937  27.0321

          k = 0.4167-0.6250 0.1284 (  2060 PWs)   bands (ev):

   -83.8523 -44.3992 -44.3631 -44.3173  12.9004  13.4431  14.9178  16.4523
    17.2480  17.8932  19.7372  24.0075  24.3284  24.8455  25.7801

          k = 0.4167-0.6250 0.2569 (  2064 PWs)   bands (ev):

   -83.8523 -44.3991 -44.3636 -44.3173  12.9728  13.5658  14.4336  16.9218
    18.1408  18.6279  19.2954  22.1537  22.9944  24.4980  25.1526

          k = 0.4167-0.6250-0.3853 (  2064 PWs)   bands (ev):

   -83.8523 -44.3991 -44.3638 -44.3172  13.0004  13.6077  14.2826  17.6688
    18.3362  18.3559  19.7944  20.8359  22.6407  24.3077  24.9199

          k =-0.6250-0.6250 0.0000 (  2044 PWs)   bands (ev):

   -83.8433 -44.3901 -44.3901 -44.3551  13.5817  15.9443  15.9443  16.1867
    16.4024  16.4024  19.9534  22.8946  22.9570  25.6208  30.1950

          k =-0.6250-0.6250 0.1284 (  2080 PWs)   bands (ev):

   -83.8433 -44.3901 -44.3901 -44.3554  13.6768  15.0751  15.0751  16.4780
    17.6507  17.6507  19.9535  22.3415  22.3916  25.9230  27.2706

          k =-0.6250-0.6250 0.2569 (  2076 PWs)   bands (ev):

   -83.8433 -44.3901 -44.3901 -44.3559  13.8828  14.4235  14.4235  17.2639
    19.3976  19.3976  19.9537  21.0573  21.4924  24.5409  24.5409

          k =-0.6250-0.6250-0.3853 (  2064 PWs)   bands (ev):

   -83.8433 -44.3900 -44.3900 -44.3560  13.9953  14.2026  14.2026  17.9280
    19.9537  20.1565  20.7817  20.7817  21.0978  22.8339  22.8339

     the Fermi energy is    20.0304 ev

!    total energy              =    -344.00842325 Ry
     estimated scf accuracy    <       0.00000058 Ry
     smearing contrib. (-TS)   =      -0.00053417 Ry
     internal energy E=F+TS    =    -344.00788907 Ry

     The total energy is F=E-TS. E is the sum of the following terms:
     one-electron contribution =    -219.95798541 Ry
     hartree contribution      =     126.15604189 Ry
     xc contribution           =     -46.45240386 Ry
     ewald contribution        =    -203.75354169 Ry

     convergence has been achieved in   5 iterations

     Forces acting on atoms (cartesian axes, Ry/au):

     atom    1 type  1   force =     0.00000000    0.00000000    0.00000000
     atom    2 type  2   force =     0.00000000    0.00000000    0.00000000

     Total force =     0.000000     Total SCF correction =     0.000000


     Computing stress (Cartesian axis) and pressure

          total   stress  (Ry/bohr**3)                   (kbar)     P=      545.08
   0.00527318   0.00000000   0.00000000          775.71        0.00        0.00
   0.00000000   0.00527318   0.00000000            0.00      775.71        0.00
   0.00000000   0.00000000   0.00056972            0.00        0.00       83.81

     Energy error            =      1.1E-02 Ry
     Gradient error          =      0.0E+00 Ry/Bohr
     Cell gradient error     =      8.4E+01 kbar

     number of scf cycles    =   2
     number of bfgs steps    =   1

     enthalpy           old  =    -343.9974932428 Ry
     enthalpy           new  =    -344.0084232470 Ry

     CASE: enthalpy          _new < enthalpy          _old

     new trust radius        =       0.0397365665 bohr
     new conv_thr            =       0.0000000100 Ry

     new unit-cell volume =    131.70072 a.u.^3 (    19.51603 Ang^3 )
     density =      7.38366 g/cm^3

CELL_PARAMETERS (alat=  5.38176635)
   0.800000000   0.000000000   0.000000000
   0.000000000   0.800000000   0.000000000
   0.000000000   0.000000000   1.320181542

ATOMIC_POSITIONS (crystal)
Si               0.0000000000        0.0000000000        0.0000000000
Ni               0.5000000000        0.5000000000        0.5000000000



     Writing config-only to output data dir ./tmp/SiNi-vc-relax.save/ :
     XML data file
     NEW-OLD atomic charge density approx. for the potential
     New effective cutoffs (rho, wfc):  397.13   99.98

     total cpu time spent up to now is       21.7 secs

     Self-consistent Calculation

     iteration #  1     ecut=   100.00 Ry     beta= 0.70
     Davidson diagonalization with overlap
     ethr =  1.00E-06,  avg # of iterations =  5.7

     total cpu time spent up to now is       24.2 secs

     total energy              =    -344.00899052 Ry
     estimated scf accuracy    <       0.00010730 Ry

     iteration #  2     ecut=   100.00 Ry     beta= 0.70
     Davidson diagonalization with overlap
     ethr =  4.88E-07,  avg # of iterations =  2.1

     total cpu time spent up to now is       25.5 secs

     total energy              =    -344.00892776 Ry
     estimated scf accuracy    <       0.00061330 Ry

     iteration #  3     ecut=   100.00 Ry     beta= 0.70
     Davidson diagonalization with overlap
     ethr =  4.88E-07,  avg # of iterations =  2.1

     total cpu time spent up to now is       26.8 secs

     total energy              =    -344.00902328 Ry
     estimated scf accuracy    <       0.00002541 Ry

     iteration #  4     ecut=   100.00 Ry     beta= 0.70
     Davidson diagonalization with overlap
     ethr =  1.16E-07,  avg # of iterations =  1.1

     total cpu time spent up to now is       27.8 secs

     total energy              =    -344.00902649 Ry
     estimated scf accuracy    <       0.00000046 Ry

     iteration #  5     ecut=   100.00 Ry     beta= 0.70
     Davidson diagonalization with overlap
     ethr =  2.08E-09,  avg # of iterations =  2.1

     total cpu time spent up to now is       29.1 secs

     End of self-consistent calculation

          k = 0.0000 0.0000 0.0000 (  2061 PWs)   bands (ev):

   -84.2522 -44.7432 -44.4610 -44.4610   3.8572  13.7430  14.0179  15.0732
    17.8717  17.8717  18.8400  20.7007  28.0548  30.0801  30.0801

          k = 0.0000 0.0000 0.1262 (  2061 PWs)   bands (ev):

   -84.2522 -44.7437 -44.4610 -44.4610   4.0892  11.8782  15.0891  15.1624
    17.8494  17.8494  18.8406  21.8855  27.9472  30.3617  30.3617

          k = 0.0000 0.0000 0.2525 (  2061 PWs)   bands (ev):

   -84.2522 -44.7441 -44.4610 -44.4610   4.6748   9.9844  15.1211  15.6525
    17.8057  17.8057  18.8417  24.6516  27.7377  31.0619  31.0619

          k = 0.0000 0.0000-0.3787 (  2036 PWs)   bands (ev):

   -84.2521 -44.7443 -44.4610 -44.4610   5.0820   9.1098  15.1373  15.7733
    17.7842  17.7842  18.8423  26.8556  27.6357  31.5430  31.5430

          k = 0.0000 0.2083 0.0000 (  2066 PWs)   bands (ev):

   -84.2431 -44.7351 -44.5374 -44.4546   4.6402  14.0574  14.3120  15.3272
    17.9383  18.2432  18.5016  20.9170  23.0755  30.7991  32.3730

          k = 0.0000 0.2083 0.1262 (  2055 PWs)   bands (ev):

   -84.2431 -44.7354 -44.5374 -44.4546   4.8608  12.4643  15.2172  15.3956
    17.7939  17.9179  18.5029  22.4241  23.2593  31.0510  31.8437

          k = 0.0000 0.2083 0.2525 (  2046 PWs)   bands (ev):

   -84.2430 -44.7359 -44.5374 -44.4546   5.4106  10.7354  15.3756  15.8425
    17.2460  17.8778  18.5052  23.6342  25.4796  30.8170  31.6587

          k = 0.0000 0.2083-0.3787 (  2034 PWs)   bands (ev):

   -84.2430 -44.7360 -44.5374 -44.4546   5.7836   9.9293  15.4042  16.0755
    16.9795  17.8580  18.5064  23.8450  27.8975  30.3343  31.4304

          k = 0.0000 0.4167 0.0000 (  2058 PWs)   bands (ev):

   -84.2248 -44.7189 -44.6891 -44.4418   6.9275  14.0162  14.5306  15.2416
    17.8815  18.0732  19.3859  19.7055  21.7112  27.7938  31.1520

          k = 0.0000 0.4167 0.1262 (  2047 PWs)   bands (ev):

   -84.2248 -44.7190 -44.6890 -44.4418   7.1115  13.5328  14.6396  15.3970
    17.8829  18.0566  18.1309  19.6848  23.7460  26.7523  32.9981

          k = 0.0000 0.4167 0.2525 (  2064 PWs)   bands (ev):

   -84.2248 -44.7195 -44.6890 -44.4418   7.5498  12.6634  14.6653  15.6498
    17.0290  17.8859  18.0235  19.8313  24.9322  27.5762  33.3985

          k = 0.0000 0.4167-0.3787 (  2058 PWs)   bands (ev):

   -84.2247 -44.7195 -44.6890 -44.4418   7.8240  12.1845  14.6537  15.7498
    16.7220  17.8875  18.0071  19.9244  24.4868  30.4202  32.2174

          k = 0.0000-0.6250 0.0000 (  2062 PWs)   bands (ev):

   -84.2156 -44.7643 -44.7107 -44.4354  10.3034  10.7539  13.9483  15.5739
    17.5945  18.1415  19.5116  21.7009  22.8898  24.2968  28.2157

          k = 0.0000-0.6250 0.1262 (  2066 PWs)   bands (ev):

   -84.2156 -44.7642 -44.7109 -44.4354  10.5481  10.6815  14.2036  15.5101
    17.5959  18.1266  18.5160  21.1817  21.8464  26.4454  29.6948

          k = 0.0000-0.6250 0.2525 (  2050 PWs)   bands (ev):

   -84.2156 -44.7641 -44.7111 -44.4354  10.5525  11.1744  14.7999  15.1854
    17.1006  17.5986  18.0970  19.4691  21.9458  29.5328  33.0863

          k = 0.0000-0.6250-0.3787 (  2048 PWs)   bands (ev):

   -84.2156 -44.7641 -44.7113 -44.4354  10.4943  11.6251  14.7649  15.1877
    16.6358  17.6000  18.0823  18.7168  21.9692  32.7563  32.9967

          k = 0.2083 0.2083 0.0000 (  2062 PWs)   bands (ev):

   -84.2340 -44.7271 -44.5326 -44.5281   5.4125  14.2109  14.8168  15.6247
    17.3190  18.0954  19.2074  21.2833  22.4236  26.2942  34.3965

          k = 0.2083 0.2083 0.1262 (  2060 PWs)   bands (ev):

   -84.2340 -44.7274 -44.5326 -44.5282   5.6217  12.9942  15.4913  15.6597
    17.2090  18.0688  18.4771  22.6523  23.0477  26.4825  32.9746

          k = 0.2083 0.2083 0.2525 (  2051 PWs)   bands (ev):

   -84.2340 -44.7278 -44.5326 -44.5281   6.1370  11.4460  15.7416  16.0364
    16.9901  17.6792  18.1587  23.1361  25.7653  27.4253  31.3618

          k = 0.2083 0.2083-0.3787 (  2050 PWs)   bands (ev):

   -84.2340 -44.7279 -44.5325 -44.5281   6.4786  10.7115  15.7913  16.2867
    16.8773  17.3925  18.1470  23.3989  26.4660  30.2520  30.7201

          k = 0.2083 0.4167 0.0000 (  2056 PWs)   bands (ev):

   -84.2158 -44.7111 -44.6807 -44.5162   7.6647  14.3469  14.8300  15.8311
    17.1326  17.5201  19.4777  20.8770  22.4794  27.0178  28.3447

          k = 0.2083 0.4167 0.1262 (  2064 PWs)   bands (ev):

   -84.2158 -44.7113 -44.6807 -44.5162   7.8373  13.9612  14.8682  15.9904
    17.0058  17.6041  19.1005  19.9160  24.6048  27.1505  27.2704

          k = 0.2083 0.4167 0.2525 (  2056 PWs)   bands (ev):

   -84.2158 -44.7116 -44.6807 -44.5162   8.2437  13.2014  14.9257  16.2020
    16.7836  17.7295  18.0756  20.0946  25.6474  26.7005  28.8111

          k = 0.2083 0.4167-0.3787 (  2062 PWs)   bands (ev):

   -84.2158 -44.7117 -44.6806 -44.5162   8.4936  12.7840  14.9459  16.2690
    16.7119  17.6321  17.8770  20.2701  25.0601  26.9641  32.5532

          k = 0.2083-0.6250 0.0000 (  2052 PWs)   bands (ev):

   -84.2067 -44.7552 -44.7030 -44.5092  11.0339  11.3133  14.3185  16.2451
    16.8898  17.2254  19.4905  23.2590  24.1417  24.4091  28.4277

          k = 0.2083-0.6250 0.1262 (  2058 PWs)   bands (ev):

   -84.2067 -44.7552 -44.7032 -44.5092  11.2517  11.2630  14.4214  16.2128
    17.0677  17.1341  19.0581  22.0445  22.6735  26.6146  29.9105

          k = 0.2083-0.6250 0.2525 (  2054 PWs)   bands (ev):

   -84.2067 -44.7552 -44.7035 -44.5091  11.1689  11.7876  14.6226  15.9868
    16.9439  17.6284  18.2145  20.1574  22.1763  28.3684  30.5469

          k = 0.2083-0.6250-0.3787 (  2048 PWs)   bands (ev):

   -84.2067 -44.7551 -44.7036 -44.5091  11.1245  12.1431  14.7209  15.6913
    16.8752  17.8718  18.4561  18.8682  22.0600  28.9154  30.6934

          k = 0.4167 0.4167 0.0000 (  2062 PWs)   bands (ev):

   -84.1979 -44.6955 -44.6661 -44.6617   9.7849  14.8926  15.0020  16.2104
    16.5042  17.5627  19.2905  22.7835  23.1043  24.6654  29.0535

          k = 0.4167 0.4167 0.1262 (  2060 PWs)   bands (ev):

   -84.1978 -44.6955 -44.6661 -44.6617   9.9188  14.4709  15.4583  15.5996
    17.1153  17.6677  19.5674  20.9739  23.0387  26.4376  28.7300

          k = 0.4167 0.4167 0.2525 (  2059 PWs)   bands (ev):

   -84.1978 -44.6959 -44.6661 -44.6617  10.2218  14.0041  15.0982  16.1708
    17.5452  17.8282  19.0556  20.3479  22.6210  26.5043  27.9280

          k = 0.4167 0.4167-0.3787 (  2058 PWs)   bands (ev):

   -84.1978 -44.6961 -44.6661 -44.6617  10.3980  13.7792  14.9221  16.9725
    17.4687  17.6625  18.2743  20.9117  22.4059  25.4898  28.4362

          k = 0.4167-0.6250 0.0000 (  2074 PWs)   bands (ev):

   -84.1889 -44.7372 -44.6876 -44.6555  12.6402  13.1148  15.1660  16.0818
    16.0939  17.4498  19.3999  24.5577  24.6206  24.7820  26.4719

          k = 0.4167-0.6250 0.1262 (  2060 PWs)   bands (ev):

   -84.1889 -44.7372 -44.6877 -44.6555  12.6772  13.1891  14.6512  16.1672
    16.8966  17.5954  19.3499  23.5395  23.9342  24.4285  25.3142

          k = 0.4167-0.6250 0.2525 (  2064 PWs)   bands (ev):

   -84.1889 -44.7372 -44.6881 -44.6555  12.7417  13.3083  14.1839  16.6181
    17.8227  18.2222  18.8946  21.7385  22.6498  24.0998  24.7323

          k = 0.4167-0.6250-0.3787 (  2064 PWs)   bands (ev):

   -84.1888 -44.7371 -44.6882 -44.6555  12.7662  13.3511  14.0372  17.3239
    17.9551  18.0455  19.2925  20.5142  22.3131  23.9212  24.5067

          k =-0.6250-0.6250 0.0000 (  2044 PWs)   bands (ev):

   -84.1799 -44.7281 -44.7281 -44.6798  13.3657  15.6623  15.6623  15.9545
    16.1318  16.1318  19.6125  22.4539  22.4849  25.1720  29.5964

          k =-0.6250-0.6250 0.1262 (  2080 PWs)   bands (ev):

   -84.1799 -44.7281 -44.7281 -44.6801  13.4544  14.8328  14.8328  16.2310
    17.3257  17.3257  19.6126  21.9158  21.9478  25.4761  26.7739

          k =-0.6250-0.6250 0.2525 (  2076 PWs)   bands (ev):

   -84.1799 -44.7281 -44.7281 -44.6805  13.6460  14.2039  14.2039  16.9736
    18.9968  18.9968  19.6127  20.6802  21.0928  24.1413  24.1413

          k =-0.6250-0.6250-0.3787 (  2064 PWs)   bands (ev):

   -84.1799 -44.7281 -44.7281 -44.6804  13.7501  13.9906  13.9906  17.5905
    19.6128  19.8309  20.2590  20.2590  20.7182  22.5629  22.5629

     the Fermi energy is    19.6004 ev

!    total energy              =    -344.00902658 Ry
     estimated scf accuracy    <          6.0E-09 Ry
     smearing contrib. (-TS)   =      -0.00083892 Ry
     internal energy E=F+TS    =    -344.00818766 Ry

     The total energy is F=E-TS. E is the sum of the following terms:
     one-electron contribution =    -223.37788406 Ry
     hartree contribution      =     127.58137011 Ry
     xc contribution           =     -46.42309966 Ry
     ewald contribution        =    -201.78857405 Ry

     convergence has been achieved in   5 iterations

     Forces acting on atoms (cartesian axes, Ry/au):

     atom    1 type  1   force =     0.00000000    0.00000000    0.00000000
     atom    2 type  2   force =     0.00000000    0.00000000    0.00000000

     Total force =     0.000000     Total SCF correction =     0.000000


     Computing stress (Cartesian axis) and pressure

          total   stress  (Ry/bohr**3)                   (kbar)     P=      485.17
   0.00493366   0.00000000   0.00000000          725.77        0.00        0.00
   0.00000000   0.00493366   0.00000000            0.00      725.77        0.00
   0.00000000   0.00000000   0.00002701            0.00        0.00        3.97

     Energy error            =      6.0E-04 Ry
     Gradient error          =      0.0E+00 Ry/Bohr
     Cell gradient error     =      4.0E+00 kbar

     number of scf cycles    =   3
     number of bfgs steps    =   2

     enthalpy           old  =    -344.0084232470 Ry
     enthalpy           new  =    -344.0090265794 Ry

     CASE: enthalpy          _new < enthalpy          _old

     new trust radius        =       0.0019605026 bohr
     new conv_thr            =       0.0000000100 Ry

     new unit-cell volume =    131.81321 a.u.^3 (    19.53270 Ang^3 )
     density =      7.37736 g/cm^3

CELL_PARAMETERS (alat=  5.38176635)
   0.800000000   0.000000000   0.000000000
   0.000000000   0.800000000   0.000000000
   0.000000000   0.000000000   1.321309199

ATOMIC_POSITIONS (crystal)
Si               0.0000000000        0.0000000000        0.0000000000
Ni               0.5000000000        0.5000000000        0.5000000000



     Writing config-only to output data dir ./tmp/SiNi-vc-relax.save/ :
     XML data file
     NEW-OLD atomic charge density approx. for the potential
     New effective cutoffs (rho, wfc):  397.13   99.98

     total cpu time spent up to now is       30.1 secs

     Self-consistent Calculation

     iteration #  1     ecut=   100.00 Ry     beta= 0.70
     Davidson diagonalization with overlap
     ethr =  1.00E-06,  avg # of iterations =  2.5

     Threshold (ethr) on eigenvalues was too large:
     Diagonalizing with lowered threshold

     Davidson diagonalization with overlap
     ethr =  6.34E-10,  avg # of iterations =  4.1

     total cpu time spent up to now is       33.1 secs

     total energy              =    -344.00902768 Ry
     estimated scf accuracy    <       0.00000027 Ry

     iteration #  2     ecut=   100.00 Ry     beta= 0.70
     Davidson diagonalization with overlap
     ethr =  1.23E-09,  avg # of iterations =  2.2

     total cpu time spent up to now is       34.5 secs

     total energy              =    -344.00902752 Ry
     estimated scf accuracy    <       0.00000166 Ry

     iteration #  3     ecut=   100.00 Ry     beta= 0.70
     Davidson diagonalization with overlap
     ethr =  1.23E-09,  avg # of iterations =  2.1

     total cpu time spent up to now is       35.7 secs

     total energy              =    -344.00902777 Ry
     estimated scf accuracy    <       0.00000005 Ry

     iteration #  4     ecut=   100.00 Ry     beta= 0.70
     Davidson diagonalization with overlap
     ethr =  2.31E-10,  avg # of iterations =  1.2

     total cpu time spent up to now is       36.8 secs

     End of self-consistent calculation

          k = 0.0000 0.0000 0.0000 (  2061 PWs)   bands (ev):

   -84.2687 -44.7592 -44.4776 -44.4776   3.8445  13.7261  13.9934  15.0579
    17.8567  17.8567  18.8239  20.6678  28.0368  30.0669  30.0669

          k = 0.0000 0.0000 0.1261 (  2061 PWs)   bands (ev):

   -84.2687 -44.7597 -44.4777 -44.4777   4.0759  11.8591  15.0736  15.1425
    17.8346  17.8346  18.8244  21.8501  27.9297  30.3475  30.3475

          k = 0.0000 0.0000 0.2523 (  2061 PWs)   bands (ev):

   -84.2687 -44.7601 -44.4776 -44.4776   4.6595   9.9685  15.1054  15.6335
    17.7912  17.7912  18.8256  24.6125  27.7214  31.0448  31.0448

          k = 0.0000 0.0000-0.3784 (  2036 PWs)   bands (ev):

   -84.2687 -44.7602 -44.4776 -44.4776   5.0649   9.0961  15.1215  15.7544
    17.7698  17.7698  18.8261  26.8165  27.6199  31.5233  31.5233

          k = 0.0000 0.2083 0.0000 (  2066 PWs)   bands (ev):

   -84.2596 -44.7511 -44.5541 -44.4713   4.6276  14.0360  14.2958  15.3125
    17.9232  18.2249  18.4857  20.8843  23.0580  30.7855  32.3545

          k = 0.0000 0.2083 0.1261 (  2055 PWs)   bands (ev):

   -84.2596 -44.7514 -44.5541 -44.4713   4.8474  12.4458  15.1998  15.3805
    17.7765  17.9030  18.4869  22.3894  23.2410  31.0364  31.8249

          k = 0.0000 0.2083 0.2523 (  2046 PWs)   bands (ev):

   -84.2596 -44.7519 -44.5540 -44.4712   5.3954  10.7197  15.3598  15.8254
    17.2305  17.8631  18.4893  23.6146  25.4412  30.7993  31.6415

          k = 0.0000 0.2083-0.3784 (  2034 PWs)   bands (ev):

   -84.2596 -44.7520 -44.5540 -44.4712   5.7668   9.9156  15.3882  16.0574
    16.9655  17.8435  18.4904  23.8246  27.8607  30.3171  31.3802

          k = 0.0000 0.4167 0.0000 (  2058 PWs)   bands (ev):

   -84.2413 -44.7349 -44.7057 -44.4585   6.9148  13.9998  14.5195  15.2257
    17.8660  18.0579  19.3654  19.6820  21.6795  27.7671  31.1243

          k = 0.0000 0.4167 0.1261 (  2047 PWs)   bands (ev):

   -84.2413 -44.7350 -44.7057 -44.4585   7.0982  13.5172  14.6277  15.3810
    17.8673  18.0415  18.1101  19.6625  23.7142  26.7273  32.9828

          k = 0.0000 0.4167 0.2523 (  2064 PWs)   bands (ev):

   -84.2413 -44.7355 -44.7056 -44.4585   7.5350  12.6488  14.6526  15.6340
    17.0113  17.8703  18.0086  19.8076  24.9131  27.5389  33.3814

          k = 0.0000 0.4167-0.3784 (  2058 PWs)   bands (ev):

   -84.2413 -44.7355 -44.7056 -44.4584   7.8081  12.1708  14.6406  15.7337
    16.7057  17.8718  17.9923  19.8996  24.4697  30.3865  32.1669

          k = 0.0000-0.6250 0.0000 (  2062 PWs)   bands (ev):

   -84.2322 -44.7809 -44.7267 -44.4521  10.2913  10.7414  13.9338  15.5579
    17.5791  18.1262  19.4912  21.6766  22.8629  24.2684  28.1818

          k = 0.0000-0.6250 0.1261 (  2066 PWs)   bands (ev):

   -84.2321 -44.7809 -44.7269 -44.4521  10.5353  10.6689  14.1893  15.4941
    17.5805  18.1114  18.4952  21.1561  21.8255  26.4147  29.6570

          k = 0.0000-0.6250 0.2523 (  2050 PWs)   bands (ev):

   -84.2321 -44.7808 -44.7271 -44.4520  10.5399  11.1597  14.7865  15.1698
    17.0819  17.5832  18.0820  19.4441  21.9273  29.4987  33.0415

          k = 0.0000-0.6250-0.3784 (  2048 PWs)   bands (ev):

   -84.2321 -44.7807 -44.7273 -44.4520  10.4817  11.6087  14.7504  15.1753
    16.6181  17.5845  18.0675  18.6914  21.9513  32.7289  32.9480

          k = 0.2083 0.2083 0.0000 (  2062 PWs)   bands (ev):

   -84.2505 -44.7432 -44.5493 -44.5448   5.3999  14.1911  14.8016  15.6101
    17.3044  18.0796  19.1868  21.2508  22.4063  26.2766  34.3721

          k = 0.2083 0.2083 0.1261 (  2060 PWs)   bands (ev):

   -84.2505 -44.7434 -44.5492 -44.5448   5.6084  12.9764  15.4749  15.6449
    17.1948  18.0527  18.4580  22.6342  23.0135  26.4636  32.9540

          k = 0.2083 0.2083 0.2523 (  2051 PWs)   bands (ev):

   -84.2505 -44.7438 -44.5492 -44.5448   6.1218  11.4306  15.7263  16.0193
    16.9770  17.6619  18.1429  23.1162  25.7359  27.3953  31.3448

          k = 0.2083 0.2083-0.3784 (  2050 PWs)   bands (ev):

   -84.2505 -44.7439 -44.5492 -44.5448   6.4620  10.6979  15.7756  16.2688
    16.8647  17.3765  18.1312  23.3778  26.4436  30.2128  30.7046

          k = 0.2083 0.4167 0.0000 (  2056 PWs)   bands (ev):

   -84.2324 -44.7271 -44.6974 -44.5329   7.6521  14.3309  14.8186  15.8160
    17.1176  17.5043  19.4576  20.8526  22.4484  26.9994  28.3186

          k = 0.2083 0.4167 0.1261 (  2064 PWs)   bands (ev):

   -84.2324 -44.7273 -44.6973 -44.5329   7.8241  13.9459  14.8565  15.9750
    16.9909  17.5882  19.0794  19.8939  24.5734  27.1302  27.2469

          k = 0.2083 0.4167 0.2523 (  2056 PWs)   bands (ev):

   -84.2323 -44.7276 -44.6973 -44.5328   8.2292  13.1872  14.9136  16.1863
    16.7680  17.7132  18.0580  20.0715  25.6286  26.6789  28.7752

          k = 0.2083 0.4167-0.3784 (  2062 PWs)   bands (ev):

   -84.2323 -44.7277 -44.6973 -44.5328   8.4781  12.7706  14.9335  16.2535
    16.6950  17.6160  17.8615  20.2458  25.0431  26.9442  31.9803

          k = 0.2083-0.6250 0.0000 (  2052 PWs)   bands (ev):

   -84.2232 -44.7719 -44.7190 -44.5258  11.0217  11.3013  14.3041  16.2295
    16.8736  17.2104  19.4704  23.2338  24.1160  24.3815  28.3945

          k = 0.2083-0.6250 0.1261 (  2058 PWs)   bands (ev):

   -84.2232 -44.7718 -44.7192 -44.5258  11.2390  11.2509  14.4076  16.1972
    17.0508  17.1190  19.0378  22.0198  22.6520  26.5877  29.8803

          k = 0.2083-0.6250 0.2523 (  2054 PWs)   bands (ev):

   -84.2232 -44.7718 -44.7195 -44.5258  11.1566  11.7733  14.6099  15.9716
    16.9276  17.6102  18.1964  20.1344  22.1580  28.3462  30.5284

          k = 0.2083-0.6250-0.3784 (  2048 PWs)   bands (ev):

   -84.2232 -44.7718 -44.7197 -44.5258  11.1121  12.1275  14.7086  15.6766
    16.8578  17.8559  18.4402  18.8430  22.0424  28.8960  30.6745

          k = 0.4167 0.4167 0.0000 (  2062 PWs)   bands (ev):

   -84.2144 -44.7115 -44.6828 -44.6784   9.7726  14.8800  14.9870  16.1963
    16.4919  17.5475  19.2715  22.7574  23.0829  24.6356  29.0347

          k = 0.4167 0.4167 0.1261 (  2060 PWs)   bands (ev):

   -84.2144 -44.7115 -44.6828 -44.6783   9.9060  14.4575  15.4440  15.5876
    17.1009  17.6521  19.5477  20.9502  23.0179  26.4084  28.7070

          k = 0.4167 0.4167 0.2523 (  2059 PWs)   bands (ev):

   -84.2144 -44.7119 -44.6827 -44.6783  10.2081  13.9913  15.0871  16.1553
    17.5298  17.8114  19.0361  20.3257  22.6010  26.4860  27.9058

          k = 0.4167 0.4167-0.3784 (  2058 PWs)   bands (ev):

   -84.2144 -44.7121 -44.6827 -44.6783  10.3836  13.7669  14.9114  16.9551
    17.4502  17.6469  18.2591  20.8870  22.3864  25.4746  28.4165

          k = 0.4167-0.6250 0.0000 (  2074 PWs)   bands (ev):

   -84.2054 -44.7538 -44.7037 -44.6722  12.6294  13.1025  15.1519  16.0660
    16.0797  17.4358  19.3814  24.5376  24.6019  24.7570  26.4447

          k = 0.4167-0.6250 0.1261 (  2060 PWs)   bands (ev):

   -84.2054 -44.7538 -44.7037 -44.6722  12.6663  13.1766  14.6380  16.1532
    16.8792  17.5807  19.3308  23.5166  23.9149  24.4082  25.2915

          k = 0.4167-0.6250 0.2523 (  2064 PWs)   bands (ev):

   -84.2054 -44.7538 -44.7041 -44.6722  12.7303  13.2957  14.1716  16.6032
    17.8070  18.2022  18.8749  21.7183  22.6330  24.0804  24.7119

          k = 0.4167-0.6250-0.3784 (  2064 PWs)   bands (ev):

   -84.2054 -44.7538 -44.7043 -44.6722  12.7547  13.3385  14.0251  17.3070
    17.9363  18.0302  19.2678  20.4984  22.2970  23.9024  24.4866

          k =-0.6250-0.6250 0.0000 (  2044 PWs)   bands (ev):

   -84.1965 -44.7448 -44.7448 -44.6958  13.3550  15.6484  15.6484  15.9431
    16.1185  16.1185  19.5957  22.4322  22.4618  25.1504  29.5672

          k =-0.6250-0.6250 0.1261 (  2080 PWs)   bands (ev):

   -84.1965 -44.7448 -44.7448 -44.6961  13.4434  14.8209  14.8209  16.2188
    17.3097  17.3097  19.5958  21.8949  21.9262  25.4544  26.7497

          k =-0.6250-0.6250 0.2523 (  2076 PWs)   bands (ev):

   -84.1965 -44.7448 -44.7448 -44.6965  13.6343  14.1931  14.1931  16.9593
    18.9770  18.9770  19.5959  20.6617  21.0733  24.1220  24.1220

          k =-0.6250-0.6250-0.3784 (  2064 PWs)   bands (ev):

   -84.1964 -44.7448 -44.7448 -44.6964  13.7380  13.9802  13.9802  17.5739
    19.5959  19.8150  20.2334  20.2334  20.6998  22.5497  22.5497

     the Fermi energy is    19.5792 ev

!    total energy              =    -344.00902777 Ry
     estimated scf accuracy    <          1.1E-09 Ry
     smearing contrib. (-TS)   =      -0.00085046 Ry
     internal energy E=F+TS    =    -344.00817731 Ry

     The total energy is F=E-TS. E is the sum of the following terms:
     one-electron contribution =    -223.54801776 Ry
     hartree contribution      =     127.65255221 Ry
     xc contribution           =     -46.42168036 Ry
     ewald contribution        =    -201.69103141 Ry

     convergence has been achieved in   4 iterations

     Forces acting on atoms (cartesian axes, Ry/au):

     atom    1 type  1   force =     0.00000000    0.00000000    0.00000000
     atom    2 type  2   force =     0.00000000    0.00000000    0.00000000

     Total force =     0.000000     Total SCF correction =     0.000000


     Computing stress (Cartesian axis) and pressure

          total   stress  (Ry/bohr**3)                   (kbar)     P=      482.13
   0.00491639   0.00000000   0.00000000          723.23        0.00        0.00
   0.00000000   0.00491639   0.00000000            0.00      723.23        0.00
   0.00000000   0.00000000  -0.00000043            0.00        0.00       -0.06

     Energy error            =      1.2E-06 Ry
     Gradient error          =      0.0E+00 Ry/Bohr
     Cell gradient error     =      6.3E-02 kbar

     bfgs converged in   4 scf cycles and   3 bfgs steps
     (criteria: energy <  1.0E-04 Ry, force <  1.0E-03 Ry/Bohr, cell <  5.0E-01 kbar)

     End of BFGS Geometry Optimization

     Final enthalpy           =    -344.0090277729 Ry

     File ./tmp/SiNi-vc-relax.bfgs deleted, as requested
Begin final coordinates
     new unit-cell volume =    131.81321 a.u.^3 (    19.53270 Ang^3 )
     density =      7.37736 g/cm^3

CELL_PARAMETERS (alat=  5.38176635)
   0.800000000   0.000000000   0.000000000
   0.000000000   0.800000000   0.000000000
   0.000000000   0.000000000   1.321309199

ATOMIC_POSITIONS (crystal)
Si               0.0000000000        0.0000000000        0.0000000000
Ni               0.5000000000        0.5000000000        0.5000000000
End final coordinates



     Writing config-only to output data dir ./tmp/SiNi-vc-relax.save/ :
     XML data file

     Final scf calculation at the relaxed structure.
     The G-vectors are recalculated for the final unit cell
     Results may differ from those at the preceding step.

     G-vector sticks info
     --------------------
     sticks:   dense  smooth     PW     G-vecs:    dense   smooth      PW
     Sum         593     593    185                17861    17861    3073

     Using Slab Decomposition



     bravais-lattice index     =            0
     lattice parameter (alat)  =       5.3818  a.u.
     unit-cell volume          =     131.8132 (a.u.)^3
     number of atoms/cell      =            2
     number of atomic types    =            2
     number of electrons       =        22.00
     number of Kohn-Sham states=           15
     kinetic-energy cutoff     =     100.0000  Ry
     charge density cutoff     =     400.0000  Ry
     scf convergence threshold =      1.0E-08
     mixing beta               =       0.7000
     number of iterations used =            8  plain     mixing
     press convergence thresh. =      5.0E-01
     Exchange-correlation= PBE
                           (   1   4   3   4   0   0   0)

     celldm(1)=   5.381766  celldm(2)=   0.000000  celldm(3)=   0.000000
     celldm(4)=   0.000000  celldm(5)=   0.000000  celldm(6)=   0.000000

     crystal axes: (cart. coord. in units of alat)
               a(1) = (   0.800000   0.000000   0.000000 )  
               a(2) = (   0.000000   0.800000   0.000000 )  
               a(3) = (   0.000000   0.000000   1.321309 )  

     reciprocal axes: (cart. coord. in units 2 pi/alat)
               b(1) = (  1.250000  0.000000  0.000000 )  
               b(2) = (  0.000000  1.250000  0.000000 )  
               b(3) = (  0.000000  0.000000  0.756825 )  


     PseudoPot. # 1 for Si read from file:
     ./PSEUDO/Si.upf
     MD5 check sum: 02fab3f35e82123ef5bf1cb05d5b1a5e
     Pseudo is Norm-conserving + core correction, Zval =  4.0
     Generated using ONCVPSP code by D. R. Hamann
     Using radial grid of 1510 points,  6 beta functions with: 
                l(1) =   0
                l(2) =   0
                l(3) =   1
                l(4) =   1
                l(5) =   2
                l(6) =   2

     PseudoPot. # 2 for Ni read from file:
     ./PSEUDO/Ni.upf
     MD5 check sum: 2b0a79d100e227970886d6963e34175b
     Pseudo is Norm-conserving + core correction, Zval = 18.0
     Generated using ONCVPSP code by D. R. Hamann
     Using radial grid of 1372 points,  6 beta functions with: 
                l(1) =   0
                l(2) =   0
                l(3) =   1
                l(4) =   1
                l(5) =   2
                l(6) =   2

     atomic species   valence    mass     pseudopotential
     Si                4.00    28.08550     Si( 1.00)
     Ni               18.00    58.69340     Ni( 1.00)

     16 Sym. Ops., with inversion, found



   Cartesian axes

     site n.     atom                  positions (alat units)
         1        Si     tau(   1) = (   0.0000000   0.0000000   0.0000000  )
         2        Ni     tau(   2) = (   0.4000000   0.4000000   0.6606546  )

     number of k points=    40  Methfessel-Paxton smearing, width (Ry)=  0.0400
                       cart. coord. in units 2pi/alat
        k(    1) = (   0.0000000   0.0000000   0.0000000), wk =   0.0092593
        k(    2) = (   0.0000000   0.0000000   0.1261375), wk =   0.0185185
        k(    3) = (   0.0000000   0.0000000   0.2522750), wk =   0.0185185
        k(    4) = (   0.0000000   0.0000000  -0.3784126), wk =   0.0092593
        k(    5) = (   0.0000000   0.2083333   0.0000000), wk =   0.0370370
        k(    6) = (   0.0000000   0.2083333   0.1261375), wk =   0.0740741
        k(    7) = (   0.0000000   0.2083333   0.2522750), wk =   0.0740741
        k(    8) = (   0.0000000   0.2083333  -0.3784126), wk =   0.0370370
        k(    9) = (   0.0000000   0.4166667   0.0000000), wk =   0.0370370
        k(   10) = (   0.0000000   0.4166667   0.1261375), wk =   0.0740741
        k(   11) = (   0.0000000   0.4166667   0.2522750), wk =   0.0740741
        k(   12) = (   0.0000000   0.4166667  -0.3784126), wk =   0.0370370
        k(   13) = (   0.0000000  -0.6250000   0.0000000), wk =   0.0185185
        k(   14) = (   0.0000000  -0.6250000   0.1261375), wk =   0.0370370
        k(   15) = (   0.0000000  -0.6250000   0.2522750), wk =   0.0370370
        k(   16) = (   0.0000000  -0.6250000  -0.3784126), wk =   0.0185185
        k(   17) = (   0.2083333   0.2083333   0.0000000), wk =   0.0370370
        k(   18) = (   0.2083333   0.2083333   0.1261375), wk =   0.0740741
        k(   19) = (   0.2083333   0.2083333   0.2522750), wk =   0.0740741
        k(   20) = (   0.2083333   0.2083333  -0.3784126), wk =   0.0370370
        k(   21) = (   0.2083333   0.4166667   0.0000000), wk =   0.0740741
        k(   22) = (   0.2083333   0.4166667   0.1261375), wk =   0.1481481
        k(   23) = (   0.2083333   0.4166667   0.2522750), wk =   0.1481481
        k(   24) = (   0.2083333   0.4166667  -0.3784126), wk =   0.0740741
        k(   25) = (   0.2083333  -0.6250000   0.0000000), wk =   0.0370370
        k(   26) = (   0.2083333  -0.6250000   0.1261375), wk =   0.0740741
        k(   27) = (   0.2083333  -0.6250000   0.2522750), wk =   0.0740741
        k(   28) = (   0.2083333  -0.6250000  -0.3784126), wk =   0.0370370
        k(   29) = (   0.4166667   0.4166667   0.0000000), wk =   0.0370370
        k(   30) = (   0.4166667   0.4166667   0.1261375), wk =   0.0740741
        k(   31) = (   0.4166667   0.4166667   0.2522750), wk =   0.0740741
        k(   32) = (   0.4166667   0.4166667  -0.3784126), wk =   0.0370370
        k(   33) = (   0.4166667  -0.6250000   0.0000000), wk =   0.0370370
        k(   34) = (   0.4166667  -0.6250000   0.1261375), wk =   0.0740741
        k(   35) = (   0.4166667  -0.6250000   0.2522750), wk =   0.0740741
        k(   36) = (   0.4166667  -0.6250000  -0.3784126), wk =   0.0370370
        k(   37) = (  -0.6250000  -0.6250000   0.0000000), wk =   0.0092593
        k(   38) = (  -0.6250000  -0.6250000   0.1261375), wk =   0.0185185
        k(   39) = (  -0.6250000  -0.6250000   0.2522750), wk =   0.0185185
        k(   40) = (  -0.6250000  -0.6250000  -0.3784126), wk =   0.0092593

     Dense  grid:    17861 G-vectors     FFT dimensions: (  27,  27,  45)

     Estimated max dynamical RAM per process >      41.10 MB

     Initial potential from superposition of free atoms

     starting charge      21.9992, renormalised to      22.0000
     Starting wfcs are   14 randomized atomic wfcs +    1 random wfcs

     total cpu time spent up to now is       38.3 secs

     Self-consistent Calculation

     iteration #  1     ecut=   100.00 Ry     beta= 0.70
     Davidson diagonalization with overlap
     c_bands:  1 eigenvalues not converged
     c_bands:  1 eigenvalues not converged
     ethr =  1.00E-06,  avg # of iterations = 12.4

     total cpu time spent up to now is       42.0 secs

     total energy              =    -343.91052740 Ry
     estimated scf accuracy    <       0.15269194 Ry

     iteration #  2     ecut=   100.00 Ry     beta= 0.70
     Davidson diagonalization with overlap
     ethr =  6.94E-04,  avg # of iterations =  2.6

     total cpu time spent up to now is       43.5 secs

     total energy              =    -343.73835127 Ry
     estimated scf accuracy    <       2.18340584 Ry

     iteration #  3     ecut=   100.00 Ry     beta= 0.70
     Davidson diagonalization with overlap
     ethr =  6.94E-04,  avg # of iterations =  2.4

     total cpu time spent up to now is       45.0 secs

     total energy              =    -344.00862968 Ry
     estimated scf accuracy    <       0.00341526 Ry

     iteration #  4     ecut=   100.00 Ry     beta= 0.70
     Davidson diagonalization with overlap
     ethr =  1.55E-05,  avg # of iterations =  2.5

     total cpu time spent up to now is       46.3 secs

     total energy              =    -344.00915354 Ry
     estimated scf accuracy    <       0.00022606 Ry

     iteration #  5     ecut=   100.00 Ry     beta= 0.70
     Davidson diagonalization with overlap
     ethr =  1.03E-06,  avg # of iterations =  2.1

     total cpu time spent up to now is       47.5 secs

     total energy              =    -344.00918440 Ry
     estimated scf accuracy    <       0.00000457 Ry

     iteration #  6     ecut=   100.00 Ry     beta= 0.70
     Davidson diagonalization with overlap
     ethr =  2.08E-08,  avg # of iterations =  2.7

     total cpu time spent up to now is       48.9 secs

     total energy              =    -344.00918547 Ry
     estimated scf accuracy    <       0.00000093 Ry

     iteration #  7     ecut=   100.00 Ry     beta= 0.70
     Davidson diagonalization with overlap
     ethr =  4.21E-09,  avg # of iterations =  1.3

     total cpu time spent up to now is       50.0 secs

     total energy              =    -344.00918556 Ry
     estimated scf accuracy    <       0.00000003 Ry

     iteration #  8     ecut=   100.00 Ry     beta= 0.70
     Davidson diagonalization with overlap
     ethr =  1.44E-10,  avg # of iterations =  2.5

     total cpu time spent up to now is       51.4 secs

     End of self-consistent calculation

          k = 0.0000 0.0000 0.0000 (  2239 PWs)   bands (ev):

   -84.2673 -44.7595 -44.4764 -44.4764   3.8446  13.7257  13.9934  15.0583
    17.8563  17.8563  18.8244  20.6676  28.0369  30.0670  30.0670

          k = 0.0000 0.0000 0.1261 (  2231 PWs)   bands (ev):

   -84.2673 -44.7598 -44.4764 -44.4764   4.0759  11.8590  15.0740  15.1422
    17.8343  17.8343  18.8250  21.8500  27.9298  30.3476  30.3476

          k = 0.0000 0.0000 0.2523 (  2222 PWs)   bands (ev):

   -84.2673 -44.7604 -44.4764 -44.4764   4.6595   9.9684  15.1058  15.6330
    17.7909  17.7909  18.8261  24.6124  27.7215  31.0448  31.0448

          k = 0.0000 0.0000-0.3784 (  2230 PWs)   bands (ev):

   -84.2673 -44.7607 -44.4764 -44.4764   5.0649   9.0961  15.1218  15.7537
    17.7695  17.7695  18.8267  26.8165  31.0661  31.5232  31.5233

          k = 0.0000 0.2083 0.0000 (  2216 PWs)   bands (ev):

   -84.2582 -44.7514 -44.5529 -44.4700   4.6276  14.0359  14.2954  15.3128
    17.9229  18.2247  18.4863  20.8841  23.0580  30.7856  32.3545

          k = 0.0000 0.2083 0.1261 (  2214 PWs)   bands (ev):

   -84.2582 -44.7517 -44.5528 -44.4700   4.8475  12.4457  15.1996  15.3807
    17.7762  17.9027  18.4875  22.3893  23.2411  31.0365  31.8249

          k = 0.0000 0.2083 0.2523 (  2216 PWs)   bands (ev):

   -84.2582 -44.7522 -44.5528 -44.4700   5.3954  10.7196  15.3601  15.8249
    17.2303  17.8628  18.4898  23.6146  25.4411  30.7993  31.6415

          k = 0.0000 0.2083-0.3784 (  2224 PWs)   bands (ev):

   -84.2582 -44.7524 -44.5528 -44.4700   5.7668   9.9156  15.3885  16.0568
    16.9652  17.8432  18.4910  23.8245  27.8606  30.3170  31.3798

          k = 0.0000 0.4167 0.0000 (  2222 PWs)   bands (ev):

   -84.2399 -44.7351 -44.7045 -44.4572   6.9148  13.9997  14.5195  15.2256
    17.8665  18.0577  19.3654  19.6819  21.6795  27.7670  31.1244

          k = 0.0000 0.4167 0.1261 (  2220 PWs)   bands (ev):

   -84.2399 -44.7353 -44.7044 -44.4572   7.0983  13.5171  14.6276  15.3810
    17.8679  18.0412  18.1098  19.6625  23.7141  26.7272  32.6762

          k = 0.0000 0.4167 0.2523 (  2221 PWs)   bands (ev):

   -84.2399 -44.7358 -44.7044 -44.4572   7.5350  12.6488  14.6525  15.6341
    17.0109  17.8708  18.0083  19.8075  24.9130  27.5388  33.3814

          k = 0.0000 0.4167-0.3784 (  2216 PWs)   bands (ev):

   -84.2399 -44.7360 -44.7044 -44.4572   7.8081  12.1708  14.6405  15.7339
    16.7052  17.8724  17.9919  19.8995  24.4695  30.3864  32.1667

          k = 0.0000-0.6250 0.0000 (  2238 PWs)   bands (ev):

   -84.2307 -44.7797 -44.7270 -44.4508  10.2914  10.7415  13.9337  15.5578
    17.5796  18.1259  19.4908  21.6765  22.8629  24.2683  28.1819

          k = 0.0000-0.6250 0.1261 (  2232 PWs)   bands (ev):

   -84.2307 -44.7796 -44.7272 -44.4508  10.5353  10.6689  14.1892  15.4941
    17.5809  18.1111  18.4950  21.1560  21.8254  26.4146  29.6571

          k = 0.0000-0.6250 0.2523 (  2226 PWs)   bands (ev):

   -84.2307 -44.7796 -44.7275 -44.4508  10.5399  11.1597  14.7865  15.1698
    17.0814  17.5837  18.0817  19.4440  21.9271  29.4986  33.0414

          k = 0.0000-0.6250-0.3784 (  2228 PWs)   bands (ev):

   -84.2307 -44.7795 -44.7277 -44.4508  10.4817  11.6087  14.7505  15.1753
    16.6176  17.5850  18.0671  18.6912  21.9511  32.7289  32.9480

          k = 0.2083 0.2083 0.0000 (  2206 PWs)   bands (ev):

   -84.2491 -44.7434 -44.5480 -44.5436   5.3999  14.1911  14.8012  15.6104
    17.3041  18.0800  19.1865  21.2507  22.4065  26.2766  34.1942

          k = 0.2083 0.2083 0.1261 (  2216 PWs)   bands (ev):

   -84.2491 -44.7436 -44.5480 -44.5436   5.6084  12.9763  15.4746  15.6452
    17.1946  18.0530  18.4578  22.6343  23.0134  26.4636  32.9540

          k = 0.2083 0.2083 0.2523 (  2224 PWs)   bands (ev):

   -84.2491 -44.7441 -44.5480 -44.5435   6.1219  11.4305  15.7266  16.0188
    16.9767  17.6617  18.1434  23.1162  25.7357  27.3953  31.3449

          k = 0.2083 0.2083-0.3784 (  2230 PWs)   bands (ev):

   -84.2491 -44.7444 -44.5480 -44.5435   6.4621  10.6978  15.7760  16.2681
    16.8644  17.3762  18.1317  23.3778  26.4436  30.2127  30.7047

          k = 0.2083 0.4167 0.0000 (  2234 PWs)   bands (ev):

   -84.2309 -44.7273 -44.6961 -44.5316   7.6521  14.3307  14.8186  15.8161
    17.1173  17.5046  19.4576  20.8524  22.4484  26.9994  28.3185

          k = 0.2083 0.4167 0.1261 (  2231 PWs)   bands (ev):

   -84.2309 -44.7275 -44.6961 -44.5316   7.8242  13.9458  14.8565  15.9750
    16.9907  17.5884  19.0793  19.8939  24.5734  27.1302  27.2469

          k = 0.2083 0.4167 0.2523 (  2222 PWs)   bands (ev):

   -84.2309 -44.7279 -44.6961 -44.5316   8.2292  13.1872  14.9135  16.1864
    16.7677  17.7132  18.0580  20.0714  25.6285  26.6789  28.7752

          k = 0.2083 0.4167-0.3784 (  2222 PWs)   bands (ev):

   -84.2309 -44.7281 -44.6960 -44.5316   8.4781  12.7707  14.9334  16.2538
    16.6946  17.6158  17.8617  20.2457  25.0431  26.9442  31.9802

          k = 0.2083-0.6250 0.0000 (  2232 PWs)   bands (ev):

   -84.2218 -44.7707 -44.7193 -44.5246  11.0218  11.3013  14.3039  16.2295
    16.8740  17.2101  19.4703  23.2337  24.1161  24.3812  28.3947

          k = 0.2083-0.6250 0.1261 (  2226 PWs)   bands (ev):

   -84.2218 -44.7706 -44.7195 -44.5246  11.2390  11.2509  14.4075  16.1971
    17.0512  17.1187  19.0376  22.0198  22.6519  26.5877  29.8803

          k = 0.2083-0.6250 0.2523 (  2224 PWs)   bands (ev):

   -84.2218 -44.7706 -44.7198 -44.5246  11.1565  11.7733  14.6100  15.9718
    16.9272  17.6104  18.1961  20.1343  22.1580  28.3463  30.5283

          k = 0.2083-0.6250-0.3784 (  2220 PWs)   bands (ev):

   -84.2218 -44.7705 -44.7200 -44.5246  11.1121  12.1276  14.7088  15.6768
    16.8573  17.8556  18.4406  18.8428  22.0423  28.8961  30.6745

          k = 0.4167 0.4167 0.0000 (  2230 PWs)   bands (ev):

   -84.2130 -44.7117 -44.6816 -44.6771   9.7726  14.8802  14.9869  16.1960
    16.4921  17.5472  19.2718  22.7572  23.0828  24.6356  29.0348

          k = 0.4167 0.4167 0.1261 (  2232 PWs)   bands (ev):

   -84.2130 -44.7119 -44.6815 -44.6771   9.9061  14.4575  15.4440  15.5874
    17.1011  17.6517  19.5479  20.9501  23.0177  26.4084  28.7069

          k = 0.4167 0.4167 0.2523 (  2227 PWs)   bands (ev):

   -84.2130 -44.7123 -44.6815 -44.6771  10.2081  13.9914  15.0870  16.1552
    17.5302  17.8109  19.0362  20.3257  22.6009  26.4861  27.9060

          k = 0.4167 0.4167-0.3784 (  2220 PWs)   bands (ev):

   -84.2130 -44.7124 -44.6815 -44.6771  10.3836  13.7671  14.9113  16.9547
    17.4500  17.6473  18.2590  20.8869  22.3863  25.4748  28.4164

          k = 0.4167-0.6250 0.0000 (  2230 PWs)   bands (ev):

   -84.2040 -44.7526 -44.7039 -44.6710  12.6295  13.1026  15.1517  16.0662
    16.0794  17.4355  19.3817  24.5378  24.6017  24.7569  26.4446

          k = 0.4167-0.6250 0.1261 (  2234 PWs)   bands (ev):

   -84.2040 -44.7526 -44.7041 -44.6709  12.6664  13.1766  14.6380  16.1529
    16.8793  17.5804  19.3309  23.5166  23.9149  24.4083  25.2912

          k = 0.4167-0.6250 0.2523 (  2228 PWs)   bands (ev):

   -84.2040 -44.7526 -44.7044 -44.6709  12.7303  13.2956  14.1718  16.6029
    17.8068  18.2022  18.8749  21.7183  22.6330  24.0805  24.7117

          k = 0.4167-0.6250-0.3784 (  2248 PWs)   bands (ev):

   -84.2040 -44.7525 -44.7046 -44.6709  12.7547  13.3385  14.0253  17.3064
    17.9362  18.0305  19.2677  20.4986  22.2970  23.9025  24.4866

          k =-0.6250-0.6250 0.0000 (  2252 PWs)   bands (ev):

   -84.1951 -44.7436 -44.7436 -44.6962  13.3552  15.6482  15.6482  15.9428
    16.1185  16.1185  19.5963  22.4315  22.4620  25.1504  29.5673

          k =-0.6250-0.6250 0.1261 (  2244 PWs)   bands (ev):

   -84.1951 -44.7436 -44.7436 -44.6964  13.4436  14.8208  14.8208  16.2186
    17.3096  17.3096  19.5963  21.8945  21.9263  25.4545  26.7497

          k =-0.6250-0.6250 0.2523 (  2240 PWs)   bands (ev):

   -84.1951 -44.7435 -44.7435 -44.6967  13.6345  14.1930  14.1930  16.9590
    18.9770  18.9770  19.5964  20.6616  21.0734  24.1220  24.1220

          k =-0.6250-0.6250-0.3784 (  2208 PWs)   bands (ev):

   -84.1950 -44.7435 -44.7435 -44.6969  13.7382  13.9800  13.9800  17.5731
    19.5965  19.8150  20.2332  20.2332  20.6998  22.5498  22.5498

     the Fermi energy is    19.5792 ev

!    total energy              =    -344.00918557 Ry
     estimated scf accuracy    <          1.3E-09 Ry
     smearing contrib. (-TS)   =      -0.00085030 Ry
     internal energy E=F+TS    =    -344.00833527 Ry

     The total energy is F=E-TS. E is the sum of the following terms:
     one-electron contribution =    -223.54903050 Ry
     hartree contribution      =     127.65355952 Ry
     xc contribution           =     -46.42183289 Ry
     ewald contribution        =    -201.69103141 Ry

     convergence has been achieved in   8 iterations

     Forces acting on atoms (cartesian axes, Ry/au):

     atom    1 type  1   force =     0.00000000    0.00000000    0.00000000
     atom    2 type  2   force =     0.00000000    0.00000000    0.00000000

     Total force =     0.000000     Total SCF correction =     0.000000


     Computing stress (Cartesian axis) and pressure

          total   stress  (Ry/bohr**3)                   (kbar)     P=      486.07
   0.00492511   0.00000000   0.00000000          724.51        0.00        0.00
   0.00000000   0.00492511   0.00000000            0.00      724.51        0.00
   0.00000000   0.00000000   0.00006244            0.00        0.00        9.18


     Writing all to output data dir ./tmp/SiNi-vc-relax.save/ :
     XML data file, charge density, pseudopotentials, collected wavefunctions

     init_run     :      2.08s CPU      2.19s WALL (       2 calls)
     electrons    :     43.78s CPU     45.37s WALL (       5 calls)
     update_pot   :      0.03s CPU      0.03s WALL (       3 calls)
     forces       :      0.95s CPU      0.97s WALL (       5 calls)
     stress       :      3.73s CPU      3.78s WALL (       5 calls)

     Called by init_run:
     wfcinit      :      1.24s CPU      1.35s WALL (       2 calls)
     potinit      :      0.20s CPU      0.21s WALL (       2 calls)
     hinit0       :      0.60s CPU      0.60s WALL (       2 calls)

     Called by electrons:
     c_bands      :     39.24s CPU     40.59s WALL (      30 calls)
     sum_band     :      4.29s CPU      4.49s WALL (      30 calls)
     v_of_rho     :      0.26s CPU      0.27s WALL (      33 calls)
     mix_rho      :      0.03s CPU      0.03s WALL (      30 calls)

     Called by c_bands:
     init_us_2    :      1.10s CPU      1.19s WALL (    2880 calls)
     cegterg      :     37.41s CPU     38.72s WALL (    1200 calls)

     Called by *egterg:
     cdiaghg      :      0.62s CPU      0.66s WALL (    4566 calls)
     h_psi        :     28.35s CPU     29.53s WALL (    4846 calls)
     g_psi        :      0.19s CPU      0.21s WALL (    3566 calls)

     Called by h_psi:
     h_psi:calbec :      3.33s CPU      3.44s WALL (    4846 calls)
     vloc_psi     :     21.67s CPU     22.69s WALL (    4846 calls)
                                        0.00s GPU  (    4846 calls)
     add_vuspsi   :      3.18s CPU      3.25s WALL (    4846 calls)

     General routines
     calbec       :      6.49s CPU      6.64s WALL (    8246 calls)
     fft          :      0.14s CPU      0.14s WALL (     455 calls)
     ffts         :      0.01s CPU      0.01s WALL (      30 calls)
     fftw         :     22.53s CPU     24.04s WALL (  120840 calls)


     PWSCF        :     50.66s CPU     52.46s WALL


   This run was terminated on:  19:53:26   8Jan2026            

=------------------------------------------------------------------------------=
   JOB DONE.
=------------------------------------------------------------------------------=
