
     Program PWSCF v.7.5 starts on  7Jan2026 at 20:23:56 

     This program is part of the open-source Quantum ESPRESSO suite
     for quantum simulation of materials; please cite
         "P. Giannozzi et al., J. Phys.:Condens. Matter 21 395502 (2009);
         "P. Giannozzi et al., J. Phys.:Condens. Matter 29 465901 (2017);
         "P. Giannozzi et al., J. Chem. Phys. 152 154105 (2020);
          URL http://www.quantum-espresso.org", 
     in publications or presentations arising from this work. More details at
     http://www.quantum-espresso.org/quote

     Serial version
     881 MiB available memory on the printing compute node when the environment starts

     Waiting for input...
     Reading input from standard input

     Current dimensions of program PWSCF are:
     Max number of different atomic species (ntypx) = 10
     Max number of k-points (npk) =  40000
     Max angular momentum in pseudopotentials (lmaxx) =  4
     Message from routine setup:
     using ibrav=0 with symmetry is DISCOURAGED, use correct ibrav instead


     G-vector sticks info
     --------------------
     sticks:   dense  smooth     PW     G-vecs:    dense   smooth      PW
     Sum         885     885    261                21351    21351    3439

     Using Slab Decomposition



     bravais-lattice index     =            0
     lattice parameter (alat)  =       5.3733  a.u.
     unit-cell volume          =     137.0818 (a.u.)^3
     number of atoms/cell      =            2
     number of atomic types    =            2
     number of electrons       =        22.00
     number of Kohn-Sham states=           15
     kinetic-energy cutoff     =     110.0000  Ry
     charge density cutoff     =     440.0000  Ry
     scf convergence threshold =      1.0E-06
     mixing beta               =       0.7000
     number of iterations used =            8  plain     mixing
     energy convergence thresh.=      1.0E-04
     force convergence thresh. =      1.0E-03
     press convergence thresh. =      5.0E-01
     Exchange-correlation= PBE
                           (   1   4   3   4   0   0   0)
     nstep                     =           50


     celldm(1)=   5.373304  celldm(2)=   0.000000  celldm(3)=   0.000000
     celldm(4)=   0.000000  celldm(5)=   0.000000  celldm(6)=   0.000000

     crystal axes: (cart. coord. in units of alat)
               a(1) = (   0.940000   0.000000   0.000000 )  
               a(2) = (   0.000000   0.940000   0.000000 )  
               a(3) = (   0.000000   0.000000   1.000000 )  

     reciprocal axes: (cart. coord. in units 2 pi/alat)
               b(1) = (  1.063830  0.000000  0.000000 )  
               b(2) = (  0.000000  1.063830  0.000000 )  
               b(3) = (  0.000000  0.000000  1.000000 )  


     PseudoPot. # 1 for Si read from file:
     ./PSEUDO/Si.upf
     MD5 check sum: 02fab3f35e82123ef5bf1cb05d5b1a5e
     Pseudo is Norm-conserving + core correction, Zval =  4.0
     Generated using ONCVPSP code by D. R. Hamann
     Using radial grid of 1510 points,  6 beta functions with: 
                l(1) =   0
                l(2) =   0
                l(3) =   1
                l(4) =   1
                l(5) =   2
                l(6) =   2

     PseudoPot. # 2 for Ni read from file:
     ./PSEUDO/Ni.upf
     MD5 check sum: 2b0a79d100e227970886d6963e34175b
     Pseudo is Norm-conserving + core correction, Zval = 18.0
     Generated using ONCVPSP code by D. R. Hamann
     Using radial grid of 1372 points,  6 beta functions with: 
                l(1) =   0
                l(2) =   0
                l(3) =   1
                l(4) =   1
                l(5) =   2
                l(6) =   2

     atomic species   valence    mass     pseudopotential
     Si                4.00    28.08550     Si( 1.00)
     Ni               18.00    58.69340     Ni( 1.00)

     16 Sym. Ops., with inversion, found



   Cartesian axes

     site n.     atom                  positions (alat units)
         1        Si     tau(   1) = (   0.0000000   0.0000000   0.0000000  )
         2        Ni     tau(   2) = (   0.4700000   0.4700000   0.5000000  )

     number of k points=    40  Methfessel-Paxton smearing, width (Ry)=  0.0400
                       cart. coord. in units 2pi/alat
        k(    1) = (   0.0000000   0.0000000   0.0000000), wk =   0.0058309
        k(    2) = (   0.0000000   0.0000000   0.1428571), wk =   0.0116618
        k(    3) = (   0.0000000   0.0000000   0.2857143), wk =   0.0116618
        k(    4) = (   0.0000000   0.0000000   0.4285714), wk =   0.0116618
        k(    5) = (   0.0000000   0.1519757   0.0000000), wk =   0.0233236
        k(    6) = (   0.0000000   0.1519757   0.1428571), wk =   0.0466472
        k(    7) = (   0.0000000   0.1519757   0.2857143), wk =   0.0466472
        k(    8) = (   0.0000000   0.1519757   0.4285714), wk =   0.0466472
        k(    9) = (   0.0000000   0.3039514   0.0000000), wk =   0.0233236
        k(   10) = (   0.0000000   0.3039514   0.1428571), wk =   0.0466472
        k(   11) = (   0.0000000   0.3039514   0.2857143), wk =   0.0466472
        k(   12) = (   0.0000000   0.3039514   0.4285714), wk =   0.0466472
        k(   13) = (   0.0000000   0.4559271   0.0000000), wk =   0.0233236
        k(   14) = (   0.0000000   0.4559271   0.1428571), wk =   0.0466472
        k(   15) = (   0.0000000   0.4559271   0.2857143), wk =   0.0466472
        k(   16) = (   0.0000000   0.4559271   0.4285714), wk =   0.0466472
        k(   17) = (   0.1519757   0.1519757   0.0000000), wk =   0.0233236
        k(   18) = (   0.1519757   0.1519757   0.1428571), wk =   0.0466472
        k(   19) = (   0.1519757   0.1519757   0.2857143), wk =   0.0466472
        k(   20) = (   0.1519757   0.1519757   0.4285714), wk =   0.0466472
        k(   21) = (   0.1519757   0.3039514   0.0000000), wk =   0.0466472
        k(   22) = (   0.1519757   0.3039514   0.1428571), wk =   0.0932945
        k(   23) = (   0.1519757   0.3039514   0.2857143), wk =   0.0932945
        k(   24) = (   0.1519757   0.3039514   0.4285714), wk =   0.0932945
        k(   25) = (   0.1519757   0.4559271   0.0000000), wk =   0.0466472
        k(   26) = (   0.1519757   0.4559271   0.1428571), wk =   0.0932945
        k(   27) = (   0.1519757   0.4559271   0.2857143), wk =   0.0932945
        k(   28) = (   0.1519757   0.4559271   0.4285714), wk =   0.0932945
        k(   29) = (   0.3039514   0.3039514   0.0000000), wk =   0.0233236
        k(   30) = (   0.3039514   0.3039514   0.1428571), wk =   0.0466472
        k(   31) = (   0.3039514   0.3039514   0.2857143), wk =   0.0466472
        k(   32) = (   0.3039514   0.3039514   0.4285714), wk =   0.0466472
        k(   33) = (   0.3039514   0.4559271   0.0000000), wk =   0.0466472
        k(   34) = (   0.3039514   0.4559271   0.1428571), wk =   0.0932945
        k(   35) = (   0.3039514   0.4559271   0.2857143), wk =   0.0932945
        k(   36) = (   0.3039514   0.4559271   0.4285714), wk =   0.0932945
        k(   37) = (   0.4559271   0.4559271   0.0000000), wk =   0.0233236
        k(   38) = (   0.4559271   0.4559271   0.1428571), wk =   0.0466472
        k(   39) = (   0.4559271   0.4559271   0.2857143), wk =   0.0466472
        k(   40) = (   0.4559271   0.4559271   0.4285714), wk =   0.0466472

     Dense  grid:    21351 G-vectors     FFT dimensions: (  36,  36,  36)

     Estimated max dynamical RAM per process >      48.49 MB

     Initial potential from superposition of free atoms

     starting charge      21.9992, renormalised to      22.0000
     Starting wfcs are   14 randomized atomic wfcs +    1 random wfcs

     total cpu time spent up to now is        1.1 secs

     Self-consistent Calculation

     iteration #  1     ecut=   110.00 Ry     beta= 0.70
     Davidson diagonalization with overlap
     ethr =  1.00E-02,  avg # of iterations =  3.8

     Threshold (ethr) on eigenvalues was too large:
     Diagonalizing with lowered threshold

     Davidson diagonalization with overlap
     ethr =  5.88E-04,  avg # of iterations =  1.1

     total cpu time spent up to now is        4.1 secs

     total energy              =    -343.99618161 Ry
     estimated scf accuracy    <       0.12435811 Ry

     iteration #  2     ecut=   110.00 Ry     beta= 0.70
     Davidson diagonalization with overlap
     ethr =  5.65E-04,  avg # of iterations =  2.9

     total cpu time spent up to now is        5.9 secs

     total energy              =    -343.91359252 Ry
     estimated scf accuracy    <       1.08931123 Ry

     iteration #  3     ecut=   110.00 Ry     beta= 0.70
     Davidson diagonalization with overlap
     ethr =  5.65E-04,  avg # of iterations =  2.3

     total cpu time spent up to now is        7.5 secs

     total energy              =    -344.06947106 Ry
     estimated scf accuracy    <       0.00209106 Ry

     iteration #  4     ecut=   110.00 Ry     beta= 0.70
     Davidson diagonalization with overlap
     ethr =  9.50E-06,  avg # of iterations =  3.0

     total cpu time spent up to now is        9.1 secs

     total energy              =    -344.06985451 Ry
     estimated scf accuracy    <       0.00030242 Ry

     iteration #  5     ecut=   110.00 Ry     beta= 0.70
     Davidson diagonalization with overlap
     ethr =  1.37E-06,  avg # of iterations =  2.6

     total cpu time spent up to now is       10.5 secs

     total energy              =    -344.06990642 Ry
     estimated scf accuracy    <       0.00000581 Ry

     iteration #  6     ecut=   110.00 Ry     beta= 0.70
     Davidson diagonalization with overlap
     ethr =  2.64E-08,  avg # of iterations =  2.3

     total cpu time spent up to now is       11.9 secs

     total energy              =    -344.06990686 Ry
     estimated scf accuracy    <       0.00000249 Ry

     iteration #  7     ecut=   110.00 Ry     beta= 0.70
     Davidson diagonalization with overlap
     ethr =  1.13E-08,  avg # of iterations =  1.1

     total cpu time spent up to now is       13.1 secs

     End of self-consistent calculation

          k = 0.0000 0.0000 0.0000 (  2629 PWs)   bands (ev):

   -85.2773 -45.6909 -45.6516 -45.6516   3.8878  14.1870  14.3057  16.4286
    16.4286  16.6479  20.3852  22.6335  22.6335  25.7261  26.2296

          k = 0.0000 0.0000 0.1429 (  2670 PWs)   bands (ev):

   -85.2770 -45.6964 -45.6512 -45.6512   4.2608  13.8299  14.4083  16.2243
    16.2243  16.6656  18.7677  23.1876  23.1876  26.1102  27.7486

          k = 0.0000 0.0000 0.2857 (  2678 PWs)   bands (ev):

   -85.2762 -45.7087 -45.6503 -45.6503   5.3490  12.2287  14.6513  15.8296
    15.8296  16.7057  17.4290  24.6362  24.6362  25.8109  29.9258

          k = 0.0000 0.0000 0.4286 (  2702 PWs)   bands (ev):

   -85.2756 -45.7186 -45.6495 -45.6495   6.9759   9.8965  14.8605  15.5579
    15.5579  16.7381  17.2261  25.5364  26.6076  26.6076  29.6274

          k = 0.0000 0.1520 0.0000 (  2669 PWs)   bands (ev):

   -85.2765 -45.6899 -45.6625 -45.6507   4.3131  14.1009  14.3598  16.0555
    16.3988  16.4588  20.1984  21.1199  23.2362  25.7321  27.9980

          k = 0.0000 0.1520 0.1429 (  2666 PWs)   bands (ev):

   -85.2761 -45.6954 -45.6621 -45.6503   4.6797  13.9669  14.3020  15.8116
    16.2447  16.4516  19.2998  20.7067  23.7492  27.0721  29.0390

          k = 0.0000 0.1520 0.2857 (  2676 PWs)   bands (ev):

   -85.2754 -45.7077 -45.6610 -45.6494   5.7464  12.4943  14.5619  15.5217
    15.8816  16.5027  17.6874  21.7768  25.0963  27.1501  30.0014

          k = 0.0000 0.1520 0.4286 (  2686 PWs)   bands (ev):

   -85.2747 -45.7175 -45.6602 -45.6486   7.3188  10.2757  14.8901  15.2800
    15.6250  16.5460  17.2569  23.0436  26.3271  26.8691  28.5170

          k = 0.0000 0.3040 0.0000 (  2669 PWs)   bands (ev):

   -85.2746 -45.6878 -45.6869 -45.6487   5.5604  12.8434  14.6824  15.4362
    15.9265  16.5273  18.1159  22.8549  24.7968  25.5875  29.5199

          k = 0.0000 0.3040 0.1429 (  2679 PWs)   bands (ev):

   -85.2743 -45.6932 -45.6864 -45.6483   5.9057  13.0378  14.3972  15.3334
    15.9585  16.3750  18.2779  20.7831  25.2115  26.9126  29.5381

          k = 0.0000 0.3040 0.2857 (  2678 PWs)   bands (ev):

   -85.2735 -45.7052 -45.6852 -45.6474   6.8978  13.1022  13.6070  15.2975
    15.9635  16.1326  17.9250  19.7047  25.2119  26.2626  29.2986

          k = 0.0000 0.3040 0.4286 (  2679 PWs)   bands (ev):

   -85.2729 -45.7149 -45.6842 -45.6466   8.2827  11.3460  14.1420  15.1321
    15.7797  16.1522  17.2888  20.5801  22.9000  27.4298  29.8326

          k = 0.0000 0.4559 0.0000 (  2675 PWs)   bands (ev):

   -85.2731 -45.7064 -45.6861 -45.6471   7.5023  10.3210  14.9674  15.0507
    15.6054  16.5829  17.7607  25.1735  25.4260  26.9660  28.0923

          k = 0.0000 0.4559 0.1429 (  2674 PWs)   bands (ev):

   -85.2728 -45.7058 -45.6914 -45.6467   7.7944  10.6208  14.7180  15.0953
    15.6538  16.4393  17.7424  22.4507  25.2467  27.1972  28.3902

          k = 0.0000 0.4559 0.2857 (  2671 PWs)   bands (ev):

   -85.2720 -45.7045 -45.7032 -45.6457   8.5937  11.4638  13.9856  15.0970
    15.7651  16.1393  17.5887  20.2779  22.4150  27.6364  30.0517

          k = 0.0000 0.4559 0.4286 (  2666 PWs)   bands (ev):

   -85.2714 -45.7128 -45.7034 -45.6450   9.5383  12.5128  13.1013  14.6890
    15.8578  15.9169  17.2419  19.6215  20.4700  27.9413  31.6405

          k = 0.1520 0.1520 0.0000 (  2686 PWs)   bands (ev):

   -85.2756 -45.6890 -45.6618 -45.6613   4.7323  14.1985  14.2860  15.9807
    16.1060  16.2579  20.2347  21.1830  21.7742  26.2528  30.1638

          k = 0.1520 0.1520 0.1429 (  2671 PWs)   bands (ev):

   -85.2753 -45.6944 -45.6614 -45.6609   5.0925  14.0768  14.2915  15.7254
    16.0136  16.1714  19.8288  20.6916  21.6447  28.8041  30.0538

          k = 0.1520 0.1520 0.2857 (  2672 PWs)   bands (ev):

   -85.2745 -45.7066 -45.6603 -45.6599   6.1373  12.7373  14.5224  15.5505
    15.6316  16.2601  18.0057  21.7761  22.6515  28.8209  29.7749

          k = 0.1520 0.1520 0.4286 (  2677 PWs)   bands (ev):

   -85.2739 -45.7163 -45.6595 -45.6591   7.6564  10.6397  14.7736  15.1820
    15.7640  16.3229  17.3264  22.9766  24.0747  26.8939  27.1830

          k = 0.1520 0.3040 0.0000 (  2671 PWs)   bands (ev):

   -85.2738 -45.6869 -45.6858 -45.6594   5.9591  13.0757  14.6034  15.4973
    15.7089  16.2746  18.2956  22.0442  23.3747  26.4778  30.5253

          k = 0.1520 0.3040 0.1429 (  2684 PWs)   bands (ev):

   -85.2734 -45.6922 -45.6853 -45.6590   6.2978  13.2479  14.3921  15.3969
    15.7331  16.0940  18.5503  21.1397  22.4464  28.4079  29.5574

          k = 0.1520 0.3040 0.2857 (  2679 PWs)   bands (ev):

   -85.2727 -45.7042 -45.6841 -45.6580   7.2675  13.3024  13.6475  15.4314
    15.6607  15.9941  18.3934  19.8143  23.2742  25.7434  30.4621

          k = 0.1520 0.3040 0.4286 (  2670 PWs)   bands (ev):

   -85.2721 -45.7138 -45.6832 -45.6572   8.6059  11.6393  13.9625  15.2696
    15.9376  16.0612  17.4352  20.7290  23.2836  24.3323  28.3101

          k = 0.1520 0.4559 0.0000 (  2659 PWs)   bands (ev):

   -85.2723 -45.7053 -45.6851 -45.6577   7.8501  10.6716  15.0017  15.1396
    15.4032  16.3465  17.7543  23.5147  25.5033  26.3609  28.1353

          k = 0.1520 0.4559 0.1429 (  2673 PWs)   bands (ev):

   -85.2719 -45.7047 -45.6904 -45.6573   8.1356  10.9595  14.5783  15.2224
    15.6838  16.1742  17.7866  22.7386  24.0166  25.9020  27.2259

          k = 0.1520 0.4559 0.2857 (  2677 PWs)   bands (ev):

   -85.2712 -45.7034 -45.7022 -45.6563   8.9177  11.7451  13.8155  15.2439
    15.9043  16.0626  17.7666  20.4255  22.7717  24.5839  28.2681

          k = 0.1520 0.4559 0.4286 (  2677 PWs)   bands (ev):

   -85.2706 -45.7117 -45.7023 -45.6555   9.8495  12.6362  12.9790  14.8499
    16.1665  16.2380  17.3688  19.5654  20.6132  25.3138  29.3228

          k = 0.3040 0.3040 0.0000 (  2658 PWs)   bands (ev):

   -85.2719 -45.6847 -45.6838 -45.6830   7.1149  13.4783  13.8552  15.5598
    15.5608  15.8717  18.1978  20.2346  24.6387  25.7857  28.4633

          k = 0.3040 0.3040 0.1429 (  2668 PWs)   bands (ev):

   -85.2716 -45.6900 -45.6833 -45.6825   7.4312  13.6281  13.7800  15.3232
    15.6643  15.8240  18.6265  20.2985  22.2600  26.4008  29.7511

          k = 0.3040 0.3040 0.2857 (  2672 PWs)   bands (ev):

   -85.2708 -45.7018 -45.6821 -45.6815   8.3257  13.4242  13.6077  15.2826
    15.7976  15.8823  19.4816  19.7449  20.6796  26.6653  26.8842

          k = 0.3040 0.3040 0.4286 (  2675 PWs)   bands (ev):

   -85.2702 -45.7113 -45.6812 -45.6806   9.5109  12.3027  13.4708  15.7449
    15.8202  16.4161  17.8125  20.8936  21.3593  23.8809  24.9599

          k = 0.3040 0.4559 0.0000 (  2651 PWs)   bands (ev):

   -85.2704 -45.7026 -45.6830 -45.6815   8.8205  11.6570  14.3902  15.3473
    15.3556  15.8768  17.6643  21.0020  23.3195  26.0842  28.9970

          k = 0.3040 0.4559 0.1429 (  2651 PWs)   bands (ev):

   -85.2701 -45.7021 -45.6882 -45.6810   9.0877  11.8823  14.0162  15.3432
    15.7784  15.9012  17.8026  21.0875  23.5313  23.7101  27.1644

          k = 0.3040 0.4559 0.2857 (  2658 PWs)   bands (ev):

   -85.2693 -45.7009 -45.6999 -45.6799   9.8188  12.3704  13.4048  15.5944
    15.8487  16.5103  18.1400  20.6773  21.4309  23.7297  24.6781

          k = 0.3040 0.4559 0.4286 (  2673 PWs)   bands (ev):

   -85.2687 -45.7093 -45.6998 -45.6790  10.7014  12.6827  12.7689  15.7365
    16.6759  16.9024  18.0657  19.2239  20.7996  22.5847  25.5513

          k = 0.4559 0.4559 0.0000 (  2644 PWs)   bands (ev):

   -85.2689 -45.7006 -45.7005 -45.6813  10.0553  12.8033  13.4605  14.9438
    15.5078  15.5611  17.4556  20.0372  21.0226  26.4749  31.7477

          k = 0.4559 0.4559 0.1429 (  2646 PWs)   bands (ev):

   -85.2686 -45.7001 -45.6999 -45.6864  10.3076  12.8558  13.1874  14.9160
    16.0349  16.0440  17.5563  19.8958  21.0770  24.6289  28.4191

          k = 0.4559 0.4559 0.2857 (  2652 PWs)   bands (ev):

   -85.2678 -45.6989 -45.6988 -45.6980  10.9830  12.7715  12.7788  15.6451
    16.7791  16.8874  18.1768  19.2973  20.9154  22.6859  25.1878

          k = 0.4559 0.4559 0.4286 (  2668 PWs)   bands (ev):

   -85.2672 -45.7074 -45.6979 -45.6978  11.7456  12.5253  12.5702  16.8637
    17.0180  17.7830  18.3957  19.5735  19.7215  22.3638  22.6941

     the Fermi energy is    19.3799 ev

!    total energy              =    -344.06990684 Ry
     estimated scf accuracy    <       0.00000021 Ry
     smearing contrib. (-TS)   =      -0.00045740 Ry
     internal energy E=F+TS    =    -344.06944945 Ry

     The total energy is F=E-TS. E is the sum of the following terms:
     one-electron contribution =    -206.93782327 Ry
     hartree contribution      =     118.54546999 Ry
     xc contribution           =     -46.33345205 Ry
     ewald contribution        =    -209.34364411 Ry

     convergence has been achieved in   7 iterations

     Forces acting on atoms (cartesian axes, Ry/au):

     atom    1 type  1   force =     0.00000000    0.00000000    0.00000000
     atom    2 type  2   force =     0.00000000    0.00000000    0.00000000

     Total force =     0.000000     Total SCF correction =     0.000000


     Computing stress (Cartesian axis) and pressure

          total   stress  (Ry/bohr**3)                   (kbar)     P=      283.24
   0.00188826   0.00000000   0.00000000          277.77        0.00        0.00
   0.00000000   0.00188826   0.00000000            0.00      277.77        0.00
   0.00000000   0.00000000   0.00199984            0.00        0.00      294.19


     BFGS Geometry Optimization
     Energy error            =      1.3E-02 Ry
     Gradient error          =      0.0E+00 Ry/Bohr
     Cell gradient error     =      2.9E+02 kbar

     number of scf cycles    =   1
     number of bfgs steps    =   0

     enthalpy           new  =    -344.0699068450 Ry

     new trust radius        =       0.1170726197 bohr
     new conv_thr            =       0.0000010000 Ry

     new unit-cell volume =    143.93536 a.u.^3 (    21.32902 Ang^3 )
     density =      6.75604 g/cm^3

CELL_PARAMETERS (alat=  5.37330365)
   0.940000000   0.000000000   0.000000000
   0.000000000   0.940000000   0.000000000
   0.000000000   0.000000000   1.049996018

ATOMIC_POSITIONS (crystal)
Si               0.0000000000        0.0000000000        0.0000000000
Ni               0.5000000000        0.5000000000        0.5000000000



     Writing config-only to output data dir ./tmp/SiNi-relax.save/ :
     XML data file
     NEW-OLD atomic charge density approx. for the potential
     New effective cutoffs (rho, wfc):  436.11  109.99

     total cpu time spent up to now is       14.4 secs

     Self-consistent Calculation

     iteration #  1     ecut=   110.00 Ry     beta= 0.70
     Davidson diagonalization with overlap
     ethr =  1.00E-06,  avg # of iterations =  8.0

     total cpu time spent up to now is       18.1 secs

     total energy              =    -344.07933002 Ry
     estimated scf accuracy    <       0.00159641 Ry

     iteration #  2     ecut=   110.00 Ry     beta= 0.70
     Davidson diagonalization with overlap
     ethr =  7.26E-06,  avg # of iterations =  2.9

     total cpu time spent up to now is       19.8 secs

     total energy              =    -344.07840344 Ry
     estimated scf accuracy    <       0.01469235 Ry

     iteration #  3     ecut=   110.00 Ry     beta= 0.70
     Davidson diagonalization with overlap
     ethr =  7.26E-06,  avg # of iterations =  2.2

     total cpu time spent up to now is       21.4 secs

     total energy              =    -344.08033784 Ry
     estimated scf accuracy    <       0.00000598 Ry

     iteration #  4     ecut=   110.00 Ry     beta= 0.70
     Davidson diagonalization with overlap
     ethr =  2.72E-08,  avg # of iterations =  3.9

     total cpu time spent up to now is       23.2 secs

     total energy              =    -344.08034241 Ry
     estimated scf accuracy    <       0.00000631 Ry

     iteration #  5     ecut=   110.00 Ry     beta= 0.70
     Davidson diagonalization with overlap
     ethr =  2.72E-08,  avg # of iterations =  1.0

     total cpu time spent up to now is       24.4 secs

     total energy              =    -344.08034231 Ry
     estimated scf accuracy    <       0.00000113 Ry

     iteration #  6     ecut=   110.00 Ry     beta= 0.70
     Davidson diagonalization with overlap
     ethr =  5.12E-09,  avg # of iterations =  2.0

     total cpu time spent up to now is       25.8 secs

     End of self-consistent calculation

          k = 0.0000 0.0000 0.0000 (  2629 PWs)   bands (ev):

   -86.1895 -46.6233 -46.5453 -46.5453   3.2855  13.3819  13.6013  15.4946
    15.4946  15.8507  18.2421  22.0240  22.0240  24.0175  25.1915

          k = 0.0000 0.0000 0.1361 (  2670 PWs)   bands (ev):

   -86.1894 -46.6264 -46.5451 -46.5451   3.6189  12.9166  13.6814  15.3399
    15.3399  15.8626  17.0144  22.5074  22.5074  25.0780  25.9990

          k = 0.0000 0.0000 0.2721 (  2678 PWs)   bands (ev):

   -86.1890 -46.6332 -46.5446 -46.5446   4.5866  11.1746  13.8693  15.0318
    15.0318  15.8894  16.0953  23.7916  23.7916  24.8010  28.5553

          k = 0.0000 0.0000 0.4082 (  2702 PWs)   bands (ev):

   -86.1887 -46.6387 -46.5442 -46.5442   5.9805   9.0205  14.0291  14.8144
    14.8144  15.9111  15.9870  24.5554  25.4937  25.4937  28.7031

          k = 0.0000 0.1520 0.0000 (  2669 PWs)   bands (ev):

   -86.1887 -46.6224 -46.5559 -46.5444   3.7095  13.3959  13.6018  15.0328
    15.5255  15.6279  19.0592  19.4149  22.5885  24.0832  26.8508

          k = 0.0000 0.1520 0.1361 (  2666 PWs)   bands (ev):

   -86.1885 -46.6254 -46.5557 -46.5442   4.0370  13.0799  13.5953  14.8545
    15.3719  15.6583  17.6503  19.8210  23.0355  25.8451  27.2837

          k = 0.0000 0.1520 0.2721 (  2676 PWs)   bands (ev):

   -86.1882 -46.6322 -46.5552 -46.5437   4.9843  11.4622  13.8166  14.6745
    15.0834  15.7007  16.3838  20.7778  24.2229  26.1954  28.5909

          k = 0.0000 0.1520 0.4082 (  2686 PWs)   bands (ev):

   -86.1879 -46.6376 -46.5547 -46.5433   6.3286   9.4147  14.0818  14.5044
    14.8788  15.7318  16.0346  21.8576  25.4308  25.7340  27.3498

          k = 0.0000 0.3040 0.0000 (  2669 PWs)   bands (ev):

   -86.1869 -46.6202 -46.5798 -46.5425   4.9548  12.2464  13.9013  14.3559
    15.1970  15.5956  17.2204  20.8371  24.0734  24.1211  28.1181

          k = 0.0000 0.3040 0.1361 (  2679 PWs)   bands (ev):

   -86.1867 -46.6232 -46.5795 -46.5423   5.2624  12.4108  13.4859  14.3801
    15.2175  15.4851  17.3412  19.1089  24.4282  25.6419  27.6577

          k = 0.0000 0.3040 0.2721 (  2678 PWs)   bands (ev):

   -86.1863 -46.6298 -46.5788 -46.5418   6.1399  12.1540  12.8830  14.4151
    15.1820  15.3376  16.7448  18.4996  23.8973  25.3328  28.1474

          k = 0.0000 0.3040 0.4082 (  2679 PWs)   bands (ev):

   -86.1860 -46.6351 -46.5783 -46.5414   7.3180  10.5287  13.3459  14.2912
    15.0267  15.3622  16.1186  19.3312  21.8236  26.3057  28.6602

          k = 0.0000 0.4559 0.0000 (  2675 PWs)   bands (ev):

   -86.1854 -46.6185 -46.5989 -46.5409   6.9029   9.7138  13.9591  14.1806
    14.8995  15.6525  16.8807  23.1587  24.1352  26.0471  26.1456

          k = 0.0000 0.4559 0.1361 (  2674 PWs)   bands (ev):

   -86.1852 -46.6214 -46.5985 -46.5407   7.1605   9.9763  13.7119  14.2444
    14.9354  15.5473  16.8437  20.8180  23.5432  26.3226  27.0056

          k = 0.0000 0.4559 0.2721 (  2671 PWs)   bands (ev):

   -86.1849 -46.6279 -46.5978 -46.5402   7.8578  10.7121  13.0740  14.2263
    15.0177  15.3240  16.6095  18.8573  20.9702  26.6637  28.9713

          k = 0.0000 0.4559 0.4082 (  2666 PWs)   bands (ev):

   -86.1846 -46.6331 -46.5972 -46.5398   8.6496  11.6549  12.2695  13.8639
    15.0868  15.1547  16.1629  18.3333  19.2692  26.8967  30.4045

          k = 0.1520 0.1520 0.0000 (  2686 PWs)   bands (ev):

   -86.1879 -46.6214 -46.5552 -46.5548   4.1280  13.5296  13.5347  14.9268
    15.3136  15.3632  19.3855  19.7513  20.4424  24.3982  29.3614

          k = 0.1520 0.1520 0.1361 (  2671 PWs)   bands (ev):

   -86.1877 -46.6244 -46.5550 -46.5545   4.4495  13.2078  13.6107  14.7603
    15.1142  15.4039  18.2072  19.7831  20.8005  26.7526  29.1881

          k = 0.1520 0.1520 0.2721 (  2672 PWs)   bands (ev):

   -86.1874 -46.6311 -46.5544 -46.5540   5.3765  11.7291  13.8051  14.7165
    14.7821  15.4720  16.7159  20.7432  21.6965  27.7565  28.4313

          k = 0.1520 0.1520 0.4082 (  2677 PWs)   bands (ev):

   -86.1871 -46.6365 -46.5540 -46.5536   6.6730   9.7933  14.0439  14.3644
    14.9628  15.5212  16.1188  21.7743  22.8857  25.9849  26.1765

          k = 0.1520 0.3040 0.0000 (  2671 PWs)   bands (ev):

   -86.1860 -46.6193 -46.5788 -46.5529   5.3550  12.4751  13.8726  14.4256
    14.9928  15.3210  17.3820  21.2340  21.3699  24.7514  29.5762

          k = 0.1520 0.3040 0.1361 (  2684 PWs)   bands (ev):

   -86.1859 -46.6222 -46.5785 -46.5527   5.6565  12.6201  13.5321  14.4497
    14.9853  15.2006  17.6041  19.4961  21.5401  26.8460  27.6954

          k = 0.1520 0.3040 0.2721 (  2679 PWs)   bands (ev):

   -86.1855 -46.6288 -46.5778 -46.5522   6.5138  12.3653  12.9540  14.5630
    14.8583  15.1947  17.1987  18.6214  22.2715  24.3870  29.1700

          k = 0.1520 0.3040 0.4082 (  2670 PWs)   bands (ev):

   -86.1852 -46.6341 -46.5773 -46.5518   7.6514  10.8379  13.2196  14.4455
    15.1256  15.2500  16.2617  19.4819  22.2194  23.1398  27.3525

          k = 0.1520 0.4559 0.0000 (  2659 PWs)   bands (ev):

   -86.1846 -46.6176 -46.5978 -46.5513   7.2576  10.0644  14.0641  14.2544
    14.6984  15.3970  16.8691  22.6675  23.5023  25.2116  26.7660

          k = 0.1520 0.4559 0.1361 (  2673 PWs)   bands (ev):

   -86.1844 -46.6205 -46.5974 -46.5511   7.5095  10.3163  13.6573  14.4016
    14.8948  15.2674  16.8847  21.1529  23.0315  24.1566  26.3187

          k = 0.1520 0.4559 0.2721 (  2677 PWs)   bands (ev):

   -86.1840 -46.6269 -46.5967 -46.5505   8.1923  11.0016  12.9634  14.3988
    15.0695  15.2494  16.8072  19.0016  21.3243  23.5739  27.2640

          k = 0.1520 0.4559 0.4082 (  2677 PWs)   bands (ev):

   -86.1838 -46.6321 -46.5961 -46.5501   8.9738  11.7966  12.2134  14.0496
    15.3181  15.4333  16.2981  18.2823  19.4371  24.1540  28.1641

          k = 0.3040 0.3040 0.0000 (  2658 PWs)   bands (ev):

   -86.1842 -46.6172 -46.5768 -46.5761   6.5185  12.8620  13.2490  14.5027
    14.8463  14.9034  17.2712  19.3143  22.6379  24.7123  26.7589

          k = 0.3040 0.3040 0.1361 (  2668 PWs)   bands (ev):

   -86.1840 -46.6200 -46.5765 -46.5758   6.7995  12.9592  13.1440  14.3200
    14.9064  14.9242  17.6609  19.3578  20.5603  25.4618  27.9683

          k = 0.3040 0.3040 0.2721 (  2672 PWs)   bands (ev):

   -86.1837 -46.6265 -46.5759 -46.5752   7.5887  12.6075  12.9303  14.4221
    14.9389  15.0848  18.1794  18.7000  19.5420  25.3172  25.5392

          k = 0.3040 0.3040 0.4082 (  2675 PWs)   bands (ev):

   -86.1834 -46.6317 -46.5754 -46.5748   8.5947  11.5561  12.7769  14.9759
    14.9781  15.4727  16.6386  19.6675  20.1520  22.8132  23.9300

          k = 0.3040 0.4559 0.0000 (  2651 PWs)   bands (ev):

   -86.1827 -46.6154 -46.5953 -46.5746   8.2548  11.0475  13.7539  14.3113
    14.6476  14.8998  16.7708  20.0525  22.4789  24.0877  27.1288

          k = 0.3040 0.4559 0.1361 (  2651 PWs)   bands (ev):

   -86.1826 -46.6183 -46.5950 -46.5743   8.4906  11.2407  13.2815  14.5158
    14.9013  15.0020  16.8899  20.0857  21.9669  22.7405  25.3834

          k = 0.3040 0.4559 0.2721 (  2658 PWs)   bands (ev):

   -86.1822 -46.6247 -46.5943 -46.5737   9.1299  11.6570  12.6596  14.7127
    15.0199  15.6460  17.1795  19.2803  20.3352  22.4054  23.5467

          k = 0.3040 0.4559 0.4082 (  2673 PWs)   bands (ev):

   -86.1819 -46.6298 -46.5937 -46.5733   9.8724  11.9244  12.0890  14.9283
    15.6871  16.0503  17.0099  17.9677  19.7258  21.3043  24.3254

          k = 0.4559 0.4559 0.0000 (  2644 PWs)   bands (ev):

   -86.1813 -46.6137 -46.5933 -46.5932   9.5538  12.1795  12.8433  14.2714
    14.5055  14.5731  16.5745  18.9827  20.1551  24.4653  28.9357

          k = 0.4559 0.4559 0.1361 (  2646 PWs)   bands (ev):

   -86.1811 -46.6165 -46.5930 -46.5929   9.7769  12.2025  12.5252  14.1289
    15.1064  15.1340  16.6600  18.7791  20.1727  23.0271  26.6408

          k = 0.4559 0.4559 0.2721 (  2652 PWs)   bands (ev):

   -86.1808 -46.6229 -46.5924 -46.5923  10.3693  12.0794  12.0955  14.7632
    15.9013  15.9973  17.2212  18.0387  19.8900  21.5012  23.7397

          k = 0.4559 0.4559 0.4082 (  2668 PWs)   bands (ev):

   -86.1805 -46.6280 -46.5919 -46.5918  11.0111  11.8256  11.9218  15.8617
    16.1535  16.7589  17.2270  18.5235  18.7427  21.0497  21.4814

     the Fermi energy is    18.0759 ev

!    total energy              =    -344.08034250 Ry
     estimated scf accuracy    <       0.00000001 Ry
     smearing contrib. (-TS)   =       0.00071705 Ry
     internal energy E=F+TS    =    -344.08105956 Ry

     The total energy is F=E-TS. E is the sum of the following terms:
     one-electron contribution =    -213.00492846 Ry
     hartree contribution      =     120.83243022 Ry
     xc contribution           =     -46.25467750 Ry
     ewald contribution        =    -205.65388382 Ry

     convergence has been achieved in   6 iterations

     Forces acting on atoms (cartesian axes, Ry/au):

     atom    1 type  1   force =     0.00000000    0.00000000    0.00000000
     atom    2 type  2   force =     0.00000000    0.00000000    0.00000000

     Total force =     0.000000     Total SCF correction =     0.000000


     Computing stress (Cartesian axis) and pressure

          total   stress  (Ry/bohr**3)                   (kbar)     P=      147.28
   0.00098258   0.00000000   0.00000000          144.54        0.00        0.00
   0.00000000   0.00098258   0.00000000            0.00      144.54        0.00
   0.00000000   0.00000000   0.00103841            0.00        0.00      152.76

     Energy error            =      1.0E-02 Ry
     Gradient error          =      0.0E+00 Ry/Bohr
     Cell gradient error     =      1.5E+02 kbar

     number of scf cycles    =   2
     number of bfgs steps    =   1

     enthalpy           old  =    -344.0699068450 Ry
     enthalpy           new  =    -344.0803425048 Ry

     CASE: enthalpy          _new < enthalpy          _old

     new trust radius        =       0.1234001788 bohr
     new conv_thr            =       0.0000000100 Ry

     new unit-cell volume =    151.33771 a.u.^3 (    22.42594 Ang^3 )
     density =      6.42559 g/cm^3

CELL_PARAMETERS (alat=  5.37330365)
   0.940000000   0.000000000   0.000000000
   0.000000000   0.940000000   0.000000000
   0.000000000   0.000000000   1.103995512

ATOMIC_POSITIONS (crystal)
Si               0.0000000000        0.0000000000        0.0000000000
Ni               0.5000000000        0.5000000000        0.5000000000



     Writing config-only to output data dir ./tmp/SiNi-relax.save/ :
     XML data file
     NEW-OLD atomic charge density approx. for the potential
     New effective cutoffs (rho, wfc):  435.96  109.99

     total cpu time spent up to now is       27.1 secs

     Self-consistent Calculation

     iteration #  1     ecut=   110.00 Ry     beta= 0.70
     Davidson diagonalization with overlap
     ethr =  1.00E-06,  avg # of iterations =  7.7

     total cpu time spent up to now is       30.7 secs

     total energy              =    -344.08383485 Ry
     estimated scf accuracy    <       0.00150207 Ry

     iteration #  2     ecut=   110.00 Ry     beta= 0.70
     Davidson diagonalization with overlap
     ethr =  6.83E-06,  avg # of iterations =  2.9

     total cpu time spent up to now is       32.7 secs

     total energy              =    -344.08279500 Ry
     estimated scf accuracy    <       0.01566916 Ry

     iteration #  3     ecut=   110.00 Ry     beta= 0.70
     Davidson diagonalization with overlap
     ethr =  6.83E-06,  avg # of iterations =  2.2

     total cpu time spent up to now is       34.4 secs

     total energy              =    -344.08478983 Ry
     estimated scf accuracy    <       0.00000608 Ry

     iteration #  4     ecut=   110.00 Ry     beta= 0.70
     Davidson diagonalization with overlap
     ethr =  2.76E-08,  avg # of iterations =  3.8

     total cpu time spent up to now is       36.3 secs

     total energy              =    -344.08479420 Ry
     estimated scf accuracy    <       0.00000606 Ry

     iteration #  5     ecut=   110.00 Ry     beta= 0.70
     Davidson diagonalization with overlap
     ethr =  2.75E-08,  avg # of iterations =  1.0

     total cpu time spent up to now is       37.5 secs

     total energy              =    -344.08479423 Ry
     estimated scf accuracy    <       0.00000086 Ry

     iteration #  6     ecut=   110.00 Ry     beta= 0.70
     Davidson diagonalization with overlap
     ethr =  3.91E-09,  avg # of iterations =  2.0

     total cpu time spent up to now is       38.9 secs

     total energy              =    -344.08479439 Ry
     estimated scf accuracy    <       0.00000001 Ry

     iteration #  7     ecut=   110.00 Ry     beta= 0.70
     Davidson diagonalization with overlap
     ethr =  5.21E-11,  avg # of iterations =  2.0

     total cpu time spent up to now is       40.3 secs

     End of self-consistent calculation

          k = 0.0000 0.0000 0.0000 (  2629 PWs)   bands (ev):

   -87.0857 -47.5303 -47.4275 -47.4275   2.6876  12.5746  12.8869  14.5997
    14.5997  15.0528  16.2566  21.4141  21.4141  22.1408  24.1716

          k = 0.0000 0.0000 0.1294 (  2670 PWs)   bands (ev):

   -87.0857 -47.5319 -47.4274 -47.4274   2.9829  11.9837  12.9476  14.4844
    14.4844  15.0604  15.3893  21.8318  21.8318  23.9994  24.0679

          k = 0.0000 0.0000 0.2588 (  2678 PWs)   bands (ev):

   -87.0855 -47.5355 -47.4272 -47.4272   3.8330  10.1437  13.0891  14.2489
    14.2489  14.8410  15.0777  22.9510  22.9510  23.8206  26.9523

          k = 0.0000 0.0000 0.3882 (  2702 PWs)   bands (ev):

   -87.0854 -47.5385 -47.4270 -47.4270   5.0039   8.1894  13.2080  14.0788
    14.0788  14.8055  15.0917  23.6075  24.3775  24.3775  27.8498

          k = 0.0000 0.1520 0.0000 (  2669 PWs)   bands (ev):

   -87.0849 -47.5293 -47.4379 -47.4267   3.1102  12.6612  12.8646  14.0156
    14.6307  14.8535  17.1888  18.6239  21.9423  22.2361  25.8166

          k = 0.0000 0.1520 0.1294 (  2666 PWs)   bands (ev):

   -87.0848 -47.5309 -47.4378 -47.4266   3.3999  12.1680  12.8895  13.9092
    14.5194  14.8723  16.1197  18.9606  22.3277  24.1446  25.8855

          k = 0.0000 0.1520 0.2588 (  2676 PWs)   bands (ev):

   -87.0847 -47.5345 -47.4376 -47.4263   4.2310  10.4528  13.0718  13.8393
    14.2987  14.9031  15.1627  19.7894  23.3560  25.2642  27.1555

          k = 0.0000 0.1520 0.3882 (  2686 PWs)   bands (ev):

   -87.0846 -47.5374 -47.4373 -47.4261   5.3585   8.5945  13.2772  13.7498
    14.1394  14.8683  14.9249  20.6903  24.5646  24.6112  26.2315

          k = 0.0000 0.3040 0.0000 (  2669 PWs)   bands (ev):

   -87.0831 -47.5272 -47.4613 -47.4248   4.3533  11.6577  13.1173  13.3041
    14.4611  14.7010  16.3113  18.9832  22.4484  23.3521  26.8853

          k = 0.0000 0.3040 0.1294 (  2679 PWs)   bands (ev):

   -87.0830 -47.5287 -47.4612 -47.4247   4.6244  11.7928  12.5568  13.4717
    14.4713  14.6245  16.3819  17.5484  23.6519  24.2152  25.7188

          k = 0.0000 0.3040 0.2588 (  2678 PWs)   bands (ev):

   -87.0829 -47.5322 -47.4608 -47.4244   5.3906  11.2158  12.1913  13.5508
    14.4026  14.5553  15.5690  17.3555  22.6383  24.4163  26.9617

          k = 0.0000 0.3040 0.3882 (  2679 PWs)   bands (ev):

   -87.0827 -47.5350 -47.4606 -47.4242   6.3749   9.7418  12.5796  13.4658
    14.2781  14.5787  14.9870  18.0921  20.8131  25.2123  27.5175

          k = 0.0000 0.4559 0.0000 (  2675 PWs)   bands (ev):

   -87.0816 -47.5254 -47.4800 -47.4233   6.3060   9.1160  12.9124  13.3891
    14.1859  14.7581  15.9957  21.2825  22.6873  24.1328  25.3210

          k = 0.0000 0.4559 0.1294 (  2674 PWs)   bands (ev):

   -87.0816 -47.5270 -47.4799 -47.4231   6.5301   9.3434  12.7248  13.4186
    14.2118  14.6829  15.9369  19.2364  21.9146  25.4533  25.4536

          k = 0.0000 0.4559 0.2588 (  2671 PWs)   bands (ev):

   -87.0814 -47.5304 -47.4795 -47.4229   7.1286   9.9782  12.1985  13.3749
    14.2710  14.5208  15.6084  17.5056  19.6090  25.7123  27.7954

          k = 0.0000 0.4559 0.3882 (  2666 PWs)   bands (ev):

   -87.0813 -47.5331 -47.4792 -47.4227   7.7802  10.8063  11.4875  13.0626
    14.3209  14.3958  15.0852  17.0687  18.1600  25.8889  29.1640

          k = 0.1520 0.1520 0.0000 (  2686 PWs)   bands (ev):

   -87.0841 -47.5283 -47.4373 -47.4368   3.5279  12.7737  12.8631  13.8787
    14.4105  14.6152  17.9147  18.5368  19.6978  22.4528  28.5662

          k = 0.1520 0.1520 0.1294 (  2671 PWs)   bands (ev):

   -87.0840 -47.5300 -47.4371 -47.4367   3.8121  12.3191  12.9251  13.8071
    14.2472  14.6414  16.6915  18.8806  19.9883  24.5902  28.3093

          k = 0.1520 0.1520 0.2588 (  2672 PWs)   bands (ev):

   -87.0839 -47.5335 -47.4369 -47.4365   4.6243  10.7429  13.0887  13.9061
    13.9335  14.6888  15.5082  19.7187  20.7569  26.7070  27.1231

          k = 0.1520 0.1520 0.3882 (  2677 PWs)   bands (ev):

   -87.0838 -47.5364 -47.4366 -47.4363   5.7102   8.9847  13.3103  13.5775
    14.1667  14.7208  14.9761  20.5901  21.7216  25.1020  25.2224

          k = 0.1520 0.3040 0.0000 (  2671 PWs)   bands (ev):

   -87.0823 -47.5262 -47.4603 -47.4350   4.7547  11.8825  13.1373  13.3831
    14.2713  14.4071  16.4588  19.5260  20.4241  22.9043  28.7039

          k = 0.1520 0.3040 0.1294 (  2684 PWs)   bands (ev):

   -87.0822 -47.5278 -47.4602 -47.4349   5.0203  12.0030  12.6434  13.5536
    14.2080  14.3661  16.6490  17.9299  20.6688  25.1007  25.8331

          k = 0.1520 0.3040 0.2588 (  2679 PWs)   bands (ev):

   -87.0821 -47.5313 -47.4599 -47.4347   5.7682  11.4484  12.2797  13.7099
    14.0577  14.4129  16.0109  17.4885  21.2857  23.0975  27.8416

          k = 0.1520 0.3040 0.3882 (  2670 PWs)   bands (ev):

   -87.0819 -47.5340 -47.4596 -47.4345   6.7182  10.0660  12.5005  13.6320
    14.3116  14.4582  15.1365  18.2474  21.2144  21.9809  26.4226

          k = 0.1520 0.4559 0.0000 (  2659 PWs)   bands (ev):

   -87.0808 -47.5245 -47.4790 -47.4334   6.6671   9.4673  13.0334  13.4983
    13.9880  14.4855  15.9801  21.6416  21.8010  23.7556  25.6770

          k = 0.1520 0.4559 0.1294 (  2673 PWs)   bands (ev):

   -87.0808 -47.5260 -47.4788 -47.4333   6.8863   9.6854  12.7339  13.5925
    14.1314  14.3906  15.9777  19.5851  22.0788  22.5244  25.3515

          k = 0.1520 0.4559 0.2588 (  2677 PWs)   bands (ev):

   -87.0806 -47.5294 -47.4784 -47.4331   7.4729  10.2763  12.1381  13.5695
    14.2450  14.4487  15.8345  17.6428  19.9600  22.5803  26.2815

          k = 0.1520 0.4559 0.3882 (  2677 PWs)   bands (ev):

   -87.0805 -47.5322 -47.4781 -47.4329   8.1163  10.9702  11.4880  13.2638
    14.4781  14.6386  15.2365  17.0283  18.3444  23.0301  27.0453

          k = 0.3040 0.3040 0.0000 (  2658 PWs)   bands (ev):

   -87.0805 -47.5241 -47.4584 -47.4578   5.9251  12.2521  12.6467  13.4796
    13.9807  14.1279  16.3427  18.3774  20.7879  23.3546  25.3375

          k = 0.3040 0.3040 0.1294 (  2668 PWs)   bands (ev):

   -87.0804 -47.5256 -47.4583 -47.4576   6.1721  12.2908  12.5153  13.3519
    14.0238  14.1873  16.6982  18.4027  18.9574  24.4530  26.2443

          k = 0.3040 0.3040 0.2588 (  2672 PWs)   bands (ev):

   -87.0803 -47.5290 -47.4580 -47.4574   6.8589  11.8057  12.2710  13.5792
    14.0993  14.3057  16.8934  17.6546  18.4607  24.0288  24.2446

          k = 0.3040 0.3040 0.3882 (  2675 PWs)   bands (ev):

   -87.0801 -47.5318 -47.4577 -47.4571   7.6978  10.8366  12.1075  14.1492
    14.2075  14.5512  15.5140  18.4925  18.9284  21.8093  22.9318

          k = 0.3040 0.4559 0.0000 (  2651 PWs)   bands (ev):

   -87.0790 -47.5224 -47.4766 -47.4563   7.6898  10.4500  13.1134  13.3208
    13.9354  13.9672  15.8760  19.0904  21.6418  22.2399  25.2678

          k = 0.3040 0.4559 0.1294 (  2651 PWs)   bands (ev):

   -87.0790 -47.5239 -47.4764 -47.4562   7.8952  10.6138  12.5359  13.6798
    14.0485  14.1725  15.9770  19.0616  20.4272  21.8592  23.6913

          k = 0.3040 0.4559 0.2588 (  2658 PWs)   bands (ev):

   -87.0788 -47.5273 -47.4761 -47.4559   8.4455  10.9648  11.9334  13.8532
    14.2070  14.7941  16.2136  17.9512  19.2479  21.0970  22.4948

          k = 0.3040 0.4559 0.3882 (  2673 PWs)   bands (ev):

   -87.0787 -47.5299 -47.4758 -47.4557   9.0582  11.1911  11.4347  14.1310
    14.7187  15.2044  15.9703  16.7604  18.7110  20.0527  23.1464

          k = 0.4559 0.4559 0.0000 (  2644 PWs)   bands (ev):

   -87.0776 -47.5207 -47.4747 -47.4746   9.0532  11.5678  12.2318  13.5510
    13.6024  13.6339  15.6952  17.8923  19.2979  22.6180  27.0408

          k = 0.4559 0.4559 0.1294 (  2646 PWs)   bands (ev):

   -87.0775 -47.5222 -47.4746 -47.4744   9.2482  11.5645  11.8727  13.3403
    14.2083  14.2831  15.7682  17.6321  19.2824  21.5209  24.9328

          k = 0.4559 0.4559 0.2588 (  2652 PWs)   bands (ev):

   -87.0774 -47.5255 -47.4742 -47.4741   9.7598  11.4092  11.4381  13.9053
    15.0394  15.1195  16.2723  16.8097  18.8878  20.3320  22.3488

          k = 0.4559 0.4559 0.3882 (  2668 PWs)   bands (ev):

   -87.0772 -47.5281 -47.4740 -47.4739  10.2886  11.1535  11.3013  14.8789
    15.2989  15.6567  16.2187  17.5102  17.7382  19.8146  20.2620

     the Fermi energy is    16.8434 ev

!    total energy              =    -344.08479439 Ry
     estimated scf accuracy    <          3.2E-09 Ry
     smearing contrib. (-TS)   =       0.00095295 Ry
     internal energy E=F+TS    =    -344.08574733 Ry

     The total energy is F=E-TS. E is the sum of the following terms:
     one-electron contribution =    -219.50978535 Ry
     hartree contribution      =     123.34792448 Ry
     xc contribution           =     -46.17742953 Ry
     ewald contribution        =    -201.74645692 Ry

     convergence has been achieved in   7 iterations

     Forces acting on atoms (cartesian axes, Ry/au):

     atom    1 type  1   force =     0.00000000    0.00000000    0.00000000
     atom    2 type  2   force =     0.00000000    0.00000000    0.00000000

     Total force =     0.000000     Total SCF correction =     0.000000


     Computing stress (Cartesian axis) and pressure

          total   stress  (Ry/bohr**3)                   (kbar)     P=       32.16
   0.00023405   0.00000000   0.00000000           34.43        0.00        0.00
   0.00000000   0.00023405   0.00000000            0.00       34.43        0.00
   0.00000000   0.00000000   0.00018774            0.00        0.00       27.62

     Energy error            =      4.5E-03 Ry
     Gradient error          =      0.0E+00 Ry/Bohr
     Cell gradient error     =      2.8E+01 kbar

     number of scf cycles    =   3
     number of bfgs steps    =   2

     enthalpy           old  =    -344.0803425048 Ry
     enthalpy           new  =    -344.0847943887 Ry

     CASE: enthalpy          _new < enthalpy          _old

     new trust radius        =       0.0265590644 bohr
     new conv_thr            =       0.0000000100 Ry

     new unit-cell volume =    152.97135 a.u.^3 (    22.66802 Ang^3 )
     density =      6.35696 g/cm^3

CELL_PARAMETERS (alat=  5.37330365)
   0.940000000   0.000000000   0.000000000
   0.000000000   0.940000000   0.000000000
   0.000000000   0.000000000   1.115912774

ATOMIC_POSITIONS (crystal)
Si               0.0000000000        0.0000000000        0.0000000000
Ni               0.5000000000        0.5000000000        0.5000000000



     Writing config-only to output data dir ./tmp/SiNi-relax.save/ :
     XML data file
     NEW-OLD atomic charge density approx. for the potential
     New effective cutoffs (rho, wfc):  435.94  109.99

     total cpu time spent up to now is       41.5 secs

     Self-consistent Calculation

     iteration #  1     ecut=   110.00 Ry     beta= 0.70
     Davidson diagonalization with overlap
     ethr =  1.00E-06,  avg # of iterations =  5.1

     total cpu time spent up to now is       44.3 secs

     total energy              =    -344.08492897 Ry
     estimated scf accuracy    <       0.00006754 Ry

     iteration #  2     ecut=   110.00 Ry     beta= 0.70
     Davidson diagonalization with overlap
     ethr =  3.07E-07,  avg # of iterations =  2.8

     total cpu time spent up to now is       46.0 secs

     total energy              =    -344.08488322 Ry
     estimated scf accuracy    <       0.00067986 Ry

     iteration #  3     ecut=   110.00 Ry     beta= 0.70
     Davidson diagonalization with overlap
     ethr =  3.07E-07,  avg # of iterations =  2.2

     total cpu time spent up to now is       47.6 secs

     total energy              =    -344.08497135 Ry
     estimated scf accuracy    <       0.00000043 Ry

     iteration #  4     ecut=   110.00 Ry     beta= 0.70
     Davidson diagonalization with overlap
     ethr =  1.94E-09,  avg # of iterations =  3.4

     total cpu time spent up to now is       49.3 secs

     total energy              =    -344.08497151 Ry
     estimated scf accuracy    <       0.00000015 Ry

     iteration #  5     ecut=   110.00 Ry     beta= 0.70
     Davidson diagonalization with overlap
     ethr =  6.90E-10,  avg # of iterations =  1.2

     total cpu time spent up to now is       50.6 secs

     End of self-consistent calculation

          k = 0.0000 0.0000 0.0000 (  2629 PWs)   bands (ev):

   -87.2723 -47.7171 -47.6119 -47.6119   2.5624  12.4046  12.7348  14.4165
    14.4165  14.8845  15.8587  21.2858  21.2858  21.7326  23.9597

          k = 0.0000 0.0000 0.1280 (  2670 PWs)   bands (ev):

   -87.2722 -47.7186 -47.6118 -47.6118   2.8498  11.7841  12.7919  14.3084
    14.3084  14.8914  15.0657  21.6902  21.6902  23.5575  23.8586

          k = 0.0000 0.0000 0.2560 (  2678 PWs)   bands (ev):

   -87.2721 -47.7218 -47.6117 -47.6117   3.6757   9.9300  12.9247  14.0865
    14.0865  14.5878  14.9071  22.7748  22.7748  23.6182  26.5700

          k = 0.0000 0.0000 0.3841 (  2702 PWs)   bands (ev):

   -87.2720 -47.7243 -47.6115 -47.6115   4.8016   8.0194  13.0360  13.9254
    13.9254  14.5647  14.9198  23.4122  24.1442  24.1442  27.6782

          k = 0.0000 0.1520 0.0000 (  2669 PWs)   bands (ev):

   -87.2714 -47.7162 -47.6223 -47.6111   2.9847  12.5029  12.7117  13.8006
    14.4475  14.6899  16.8211  18.4568  21.8066  21.8325  25.6099

          k = 0.0000 0.1520 0.1280 (  2666 PWs)   bands (ev):

   -87.2714 -47.7176 -47.6222 -47.6110   3.2667  11.9727  12.7403  13.7115
    14.3435  14.7069  15.8173  18.7809  22.1796  23.7285  25.6450

          k = 0.0000 0.1520 0.2560 (  2676 PWs)   bands (ev):

   -87.2713 -47.7208 -47.6220 -47.6108   4.0738  10.2435  12.9145  13.6650
    14.1357  14.7354  14.9176  19.5828  23.1748  25.0702  26.8301

          k = 0.0000 0.1520 0.3841 (  2686 PWs)   bands (ev):

   -87.2712 -47.7233 -47.6218 -47.6107   5.1577   8.4265  13.1080  13.5937
    13.9851  14.6308  14.7555  20.4479  24.3779  24.3857  26.0019

          k = 0.0000 0.3040 0.0000 (  2669 PWs)   bands (ev):

   -87.2696 -47.7141 -47.6456 -47.6092   4.2273  11.5349  12.9520  13.0868
    14.3051  14.5176  16.1183  18.6138  22.0767  23.2008  26.6433

          k = 0.0000 0.3040 0.1280 (  2679 PWs)   bands (ev):

   -87.2696 -47.7155 -47.6455 -47.6091   4.4909  11.6637  12.3602  13.2857
    14.3132  14.4475  16.1763  17.2365  23.4897  23.8870  25.3223

          k = 0.0000 0.3040 0.2560 (  2678 PWs)   bands (ev):

   -87.2694 -47.7185 -47.6452 -47.6089   5.2342  11.0210  12.0489  13.3710
    14.2396  14.3916  15.3255  17.1200  22.3810  24.2257  26.6977

          k = 0.0000 0.3040 0.3841 (  2679 PWs)   bands (ev):

   -87.2693 -47.7209 -47.6450 -47.6088   6.1798   9.5797  12.4222  13.2936
    14.1216  14.4141  14.7551  17.8332  20.6079  24.9869  27.2804

          k = 0.0000 0.4559 0.0000 (  2675 PWs)   bands (ev):

   -87.2682 -47.7123 -47.6642 -47.6077   6.1807   8.9914  12.6986  13.2222
    14.0344  14.5746  15.8088  20.9049  22.3657  23.7465  25.1474

          k = 0.0000 0.4559 0.1280 (  2674 PWs)   bands (ev):

   -87.2681 -47.7137 -47.6641 -47.6076   6.3979   9.2117  12.5219  13.2464
    14.0585  14.5048  15.7449  18.9121  21.5825  25.1039  25.2715

          k = 0.0000 0.4559 0.2560 (  2671 PWs)   bands (ev):

   -87.2680 -47.7167 -47.6638 -47.6074   6.9763   9.8261  12.0192  13.1979
    14.1135  14.3538  15.3953  17.2301  19.3334  25.5153  27.5276

          k = 0.0000 0.4559 0.3841 (  2666 PWs)   bands (ev):

   -87.2679 -47.7191 -47.6635 -47.6072   7.6003  10.6300  11.3281  12.8964
    14.1598  14.2370  14.8606  16.8054  17.9373  25.6818  28.9025

          k = 0.1520 0.1520 0.0000 (  2686 PWs)   bands (ev):

   -87.2706 -47.7152 -47.6217 -47.6212   3.4022  12.6149  12.7203  13.6582
    14.2258  14.4569  17.5525  18.3587  19.5406  22.0374  28.3999

          k = 0.1520 0.1520 0.1280 (  2671 PWs)   bands (ev):

   -87.2706 -47.7167 -47.6215 -47.6211   3.6788  12.1289  12.7797  13.6092
    14.0692  14.4807  16.3897  18.6917  19.8193  24.1293  28.1215

          k = 0.1520 0.1520 0.2560 (  2672 PWs)   bands (ev):

   -87.2705 -47.7198 -47.6213 -47.6209   4.4673  10.5385  12.9375  13.7390
    13.7552  14.5241  15.2658  19.5047  20.5611  26.4889  26.8430

          k = 0.1520 0.1520 0.3841 (  2677 PWs)   bands (ev):

   -87.2704 -47.7223 -47.6211 -47.6207   5.5110   8.8188  13.1539  13.4172
    13.9995  14.5499  14.7474  20.3440  21.4811  24.9196  25.0269

          k = 0.1520 0.3040 0.0000 (  2671 PWs)   bands (ev):

   -87.2688 -47.7131 -47.6446 -47.6195   4.6290  11.7588  12.9820  13.1678
    14.1185  14.2201  16.2633  19.1581  20.2541  22.5065  28.5278

          k = 0.1520 0.3040 0.1280 (  2684 PWs)   bands (ev):

   -87.2688 -47.7145 -47.6445 -47.6194   4.8872  11.8745  12.4535  13.3712
    14.0393  14.1993  16.4468  17.6132  20.4877  24.6988  25.4725

          k = 0.1520 0.3040 0.2560 (  2679 PWs)   bands (ev):

   -87.2687 -47.7175 -47.6442 -47.6191   5.6126  11.2584  12.1402  13.5322
    13.8899  14.2498  15.7653  17.2552  21.0807  22.8349  27.5404

          k = 0.1520 0.3040 0.3841 (  2670 PWs)   bands (ev):

   -87.2685 -47.7199 -47.6440 -47.6190   6.5251   9.9069  12.3525  13.4618
    14.1401  14.2931  14.9075  17.9898  21.0096  21.7422  26.2298

          k = 0.1520 0.4559 0.0000 (  2659 PWs)   bands (ev):

   -87.2674 -47.7114 -47.6632 -47.6179   6.5432   9.3430  12.8229  13.3383
    13.8373  14.2988  15.7924  21.2672  21.6142  23.4231  24.1548

          k = 0.1520 0.4559 0.1280 (  2673 PWs)   bands (ev):

   -87.2673 -47.7128 -47.6630 -47.6178   6.7557   9.5542  12.5418  13.4237
    13.9719  14.2103  15.7861  19.2627  21.8634  22.2115  25.1221

          k = 0.1520 0.4559 0.2560 (  2677 PWs)   bands (ev):

   -87.2672 -47.7157 -47.6627 -47.6176   7.3226  10.1262  11.9683  13.3968
    14.0731  14.2812  15.6283  17.3656  19.6837  22.3738  26.0766

          k = 0.1520 0.4559 0.3841 (  2677 PWs)   bands (ev):

   -87.2671 -47.7181 -47.6625 -47.6174   7.9388  10.7991  11.3394  13.0999
    14.3022  14.4720  15.0166  16.7680  18.1241  22.7990  26.8152

          k = 0.3040 0.3040 0.0000 (  2658 PWs)   bands (ev):

   -87.2670 -47.7110 -47.6428 -47.6421   5.8007  12.1245  12.5202  13.2693
    13.7925  13.9762  16.1471  18.1784  20.4172  23.0258  25.0838

          k = 0.3040 0.3040 0.1280 (  2668 PWs)   bands (ev):

   -87.2670 -47.7124 -47.6426 -47.6420   6.0408  12.1495  12.3839  13.1540
    13.8426  14.0323  16.4960  18.1995  18.6335  24.2194  25.8961

          k = 0.3040 0.3040 0.2560 (  2672 PWs)   bands (ev):

   -87.2669 -47.7153 -47.6423 -47.6417   6.7065  11.6390  12.1349  13.4047
    13.9247  14.1436  16.6283  17.4346  18.2381  23.7656  23.9795

          k = 0.3040 0.3040 0.3841 (  2675 PWs)   bands (ev):

   -87.2667 -47.7177 -47.6421 -47.6415   7.5122  10.6882  11.9701  13.9761
    14.0443  14.3612  15.2845  18.2522  18.6702  21.6055  22.7251

          k = 0.3040 0.4559 0.0000 (  2651 PWs)   bands (ev):

   -87.2656 -47.7093 -47.6608 -47.6407   7.5711  10.3259  12.9777  13.1187
    13.7769  13.7849  15.6874  18.8868  21.4659  21.8693  24.8793

          k = 0.3040 0.4559 0.1280 (  2651 PWs)   bands (ev):

   -87.2655 -47.7106 -47.6607 -47.6405   7.7702  10.4838  12.3781  13.5055
    13.8710  14.0051  15.7847  18.8432  20.1167  21.6757  23.3471

          k = 0.3040 0.4559 0.2560 (  2658 PWs)   bands (ev):

   -87.2654 -47.7136 -47.6604 -47.6403   8.3023  10.8220  11.7833  13.6756
    14.0377  14.6159  16.0096  17.6808  19.0212  20.8271  22.2803

          k = 0.3040 0.4559 0.3841 (  2673 PWs)   bands (ev):

   -87.2653 -47.7159 -47.6601 -47.6401   8.8893  11.0403  11.3000  13.9641
    14.5182  15.0260  15.7552  16.5128  18.5043  19.7942  22.9047

          k = 0.4559 0.4559 0.0000 (  2644 PWs)   bands (ev):

   -87.2641 -47.7076 -47.6590 -47.6588   8.9479  11.4407  12.1038  13.3566
    13.4428  13.4621  15.5101  17.6592  19.1188  22.2495  26.6440

          k = 0.4559 0.4559 0.1280 (  2646 PWs)   bands (ev):

   -87.2641 -47.7089 -47.6588 -47.6587   9.1372  11.4323  11.7369  13.1750
    14.0244  14.1098  15.5807  17.3886  19.0968  21.2156  24.5829

          k = 0.4559 0.4559 0.2560 (  2652 PWs)   bands (ev):

   -87.2640 -47.7118 -47.6586 -47.6584   9.6321  11.2713  11.3031  13.7281
    14.8598  14.9359  16.0732  16.5574  18.6792  20.0881  22.0640

          k = 0.4559 0.4559 0.3841 (  2668 PWs)   bands (ev):

   -87.2639 -47.7141 -47.6583 -47.6582  10.1387  11.0160  11.1737  14.6754
    15.1199  15.4215  16.0199  17.3019  17.5219  19.5670  20.0091

     the Fermi energy is    16.5975 ev

!    total energy              =    -344.08497151 Ry
     estimated scf accuracy    <          9.6E-09 Ry
     smearing contrib. (-TS)   =       0.00087142 Ry
     internal energy E=F+TS    =    -344.08584293 Ry

     The total energy is F=E-TS. E is the sum of the following terms:
     one-electron contribution =    -220.94063454 Ry
     hartree contribution      =     123.91188030 Ry
     xc contribution           =     -46.16194916 Ry
     ewald contribution        =    -200.89513953 Ry

     convergence has been achieved in   5 iterations

     Forces acting on atoms (cartesian axes, Ry/au):

     atom    1 type  1   force =     0.00000000    0.00000000    0.00000000
     atom    2 type  2   force =     0.00000000    0.00000000    0.00000000

     Total force =     0.000000     Total SCF correction =     0.000000


     Computing stress (Cartesian axis) and pressure

          total   stress  (Ry/bohr**3)                   (kbar)     P=       12.20
   0.00010806   0.00000000   0.00000000           15.90        0.00        0.00
   0.00000000   0.00010806   0.00000000            0.00       15.90        0.00
   0.00000000   0.00000000   0.00003274            0.00        0.00        4.82

     Energy error            =      1.8E-04 Ry
     Gradient error          =      0.0E+00 Ry/Bohr
     Cell gradient error     =      4.8E+00 kbar

     number of scf cycles    =   4
     number of bfgs steps    =   3

     enthalpy           old  =    -344.0847943887 Ry
     enthalpy           new  =    -344.0849715141 Ry

     CASE: enthalpy          _new < enthalpy          _old

     new trust radius        =       0.0055797535 bohr
     new conv_thr            =       0.0000000100 Ry

     new unit-cell volume =    153.31641 a.u.^3 (    22.71915 Ang^3 )
     density =      6.34266 g/cm^3

CELL_PARAMETERS (alat=  5.37330365)
   0.940000000   0.000000000   0.000000000
   0.000000000   0.940000000   0.000000000
   0.000000000   0.000000000   1.118429930

ATOMIC_POSITIONS (crystal)
Si               0.0000000000        0.0000000000        0.0000000000
Ni               0.5000000000        0.5000000000        0.5000000000



     Writing config-only to output data dir ./tmp/SiNi-relax.save/ :
     XML data file
     NEW-OLD atomic charge density approx. for the potential
     New effective cutoffs (rho, wfc):  435.93  109.99

     total cpu time spent up to now is       51.9 secs

     Self-consistent Calculation

     iteration #  1     ecut=   110.00 Ry     beta= 0.70
     Davidson diagonalization with overlap
     ethr =  1.00E-06,  avg # of iterations =  3.0

     Threshold (ethr) on eigenvalues was too large:
     Diagonalizing with lowered threshold

     Davidson diagonalization with overlap
     ethr =  4.72E-09,  avg # of iterations =  2.8

     total cpu time spent up to now is       55.7 secs

     total energy              =    -344.08497414 Ry
     estimated scf accuracy    <       0.00000161 Ry

     iteration #  2     ecut=   110.00 Ry     beta= 0.70
     Davidson diagonalization with overlap
     ethr =  7.33E-09,  avg # of iterations =  2.6

     total cpu time spent up to now is       57.6 secs

     total energy              =    -344.08497309 Ry
     estimated scf accuracy    <       0.00001480 Ry

     iteration #  3     ecut=   110.00 Ry     beta= 0.70
     Davidson diagonalization with overlap
     ethr =  7.33E-09,  avg # of iterations =  2.1

     total cpu time spent up to now is       59.5 secs

     total energy              =    -344.08497505 Ry
     estimated scf accuracy    <       0.00000002 Ry

     iteration #  4     ecut=   110.00 Ry     beta= 0.70
     Davidson diagonalization with overlap
     ethr =  1.05E-10,  avg # of iterations =  2.4

     total cpu time spent up to now is       61.3 secs

     End of self-consistent calculation

          k = 0.0000 0.0000 0.0000 (  2629 PWs)   bands (ev):

   -87.3110 -47.7559 -47.6503 -47.6503   2.5363  12.3691  12.7030  14.3785
    14.3785  14.8494  15.7763  21.2589  21.2589  21.6469  23.9156

          k = 0.0000 0.0000 0.1277 (  2670 PWs)   bands (ev):

   -87.3109 -47.7573 -47.6502 -47.6502   2.8220  11.7422  12.7594  14.2718
    14.2718  14.8562  14.9989  21.6606  21.6606  23.4646  23.8149

          k = 0.0000 0.0000 0.2555 (  2678 PWs)   bands (ev):

   -87.3108 -47.7604 -47.6500 -47.6500   3.6429   9.8855  12.8904  14.0527
    14.0527  14.5353  14.8716  22.7380  22.7380  23.5760  26.4878

          k = 0.0000 0.0000 0.3832 (  2702 PWs)   bands (ev):

   -87.3107 -47.7629 -47.6499 -47.6499   4.7594   7.9841  13.0002  13.8935
    13.8935  14.5148  14.8840  23.3715  24.0955  24.0955  27.6427

          k = 0.0000 0.1520 0.0000 (  2669 PWs)   bands (ev):

   -87.3102 -47.7550 -47.6607 -47.6494   2.9585  12.4697  12.6799  13.7557
    14.4094  14.6557  16.7454  18.4218  21.7477  21.7783  25.5670

          k = 0.0000 0.1520 0.1277 (  2666 PWs)   bands (ev):

   -87.3101 -47.7564 -47.6606 -47.6494   3.2388  11.9317  12.7091  13.6703
    14.3069  14.6724  15.7551  18.7434  22.1486  23.6400  25.5962

          k = 0.0000 0.1520 0.2555 (  2676 PWs)   bands (ev):

   -87.3100 -47.7594 -47.6603 -47.6492   4.0410  10.1999  12.8817  13.6287
    14.1018  14.7004  14.8669  19.5397  23.1369  25.0296  26.7600

          k = 0.0000 0.1520 0.3832 (  2686 PWs)   bands (ev):

   -87.3099 -47.7619 -47.6602 -47.6490   5.1158   8.3916  13.0728  13.5612
    13.9530  14.5816  14.7202  20.3974  24.3293  24.3484  25.9541

          k = 0.0000 0.3040 0.0000 (  2669 PWs)   bands (ev):

   -87.3084 -47.7528 -47.6839 -47.6476   4.2009  11.5092  12.9176  13.0416
    14.2725  14.4796  16.0779  18.5374  21.9983  23.1692  26.5933

          k = 0.0000 0.3040 0.1277 (  2679 PWs)   bands (ev):

   -87.3083 -47.7542 -47.6838 -47.6475   4.4630  11.6368  12.3192  13.2471
    14.2802  14.4108  16.1332  17.1721  23.4558  23.8170  25.2404

          k = 0.0000 0.3040 0.2555 (  2678 PWs)   bands (ev):

   -87.3082 -47.7571 -47.6835 -47.6473   5.2016  10.9804  12.0193  13.3336
    14.2056  14.3575  15.2749  17.0710  22.3276  24.1859  26.6414

          k = 0.0000 0.3040 0.3832 (  2679 PWs)   bands (ev):

   -87.3081 -47.7595 -47.6833 -47.6471   6.1391   9.5460  12.3895  13.2577
    14.0890  14.3798  14.7070  17.7791  20.5653  24.9399  27.2309

          k = 0.0000 0.4559 0.0000 (  2675 PWs)   bands (ev):

   -87.3069 -47.7511 -47.7025 -47.6461   6.1545   8.9654  12.6542  13.1874
    14.0028  14.5365  15.7697  20.8266  22.2978  23.6664  25.1111

          k = 0.0000 0.4559 0.1277 (  2674 PWs)   bands (ev):

   -87.3069 -47.7524 -47.7024 -47.6460   6.3703   9.1842  12.4797  13.2105
    14.0265  14.4678  15.7048  18.8447  21.5136  25.0298  25.2335

          k = 0.0000 0.4559 0.2555 (  2671 PWs)   bands (ev):

   -87.3067 -47.7553 -47.7021 -47.6458   6.9445   9.7944  11.9820  13.1610
    14.0807  14.3191  15.3508  17.1730  19.2763  25.4743  27.4704

          k = 0.0000 0.4559 0.3832 (  2666 PWs)   bands (ev):

   -87.3066 -47.7576 -47.7018 -47.6456   7.5628  10.5932  11.2950  12.8619
    14.1263  14.2039  14.8139  16.7506  17.8912  25.6386  28.8478

          k = 0.1520 0.1520 0.0000 (  2686 PWs)   bands (ev):

   -87.3094 -47.7540 -47.6600 -47.6596   3.3760  12.5817  12.6904  13.6122
    14.1875  14.4239  17.4779  18.3215  19.5078  21.9504  28.3651

          k = 0.1520 0.1520 0.1277 (  2671 PWs)   bands (ev):

   -87.3093 -47.7554 -47.6599 -47.6595   3.6509  12.0890  12.7493  13.5680
    14.0323  14.4472  16.3275  18.6523  19.7840  24.0329  28.0821

          k = 0.1520 0.1520 0.2555 (  2672 PWs)   bands (ev):

   -87.3092 -47.7584 -47.6597 -47.6593   4.4345  10.4959  12.9059  13.7043
    13.7181  14.4898  15.2157  19.4600  20.5202  26.4434  26.7835

          k = 0.1520 0.1520 0.3832 (  2677 PWs)   bands (ev):

   -87.3091 -47.7608 -47.6595 -47.6591   5.4695   8.7843  13.1211  13.3840
    13.9646  14.5139  14.7005  20.2927  21.4309  24.8816  24.9862

          k = 0.1520 0.3040 0.0000 (  2671 PWs)   bands (ev):

   -87.3076 -47.7519 -47.6829 -47.6578   4.6027  11.7330  12.9496  13.1230
    14.0866  14.1813  16.2225  19.0821  20.2185  22.4231  28.4912

          k = 0.1520 0.3040 0.1277 (  2684 PWs)   bands (ev):

   -87.3075 -47.7532 -47.6828 -47.6577   4.8593  11.8477  12.4138  13.3333
    14.0039  14.1648  16.4045  17.5477  20.4500  24.6133  25.3987

          k = 0.1520 0.3040 0.2555 (  2679 PWs)   bands (ev):

   -87.3074 -47.7562 -47.6826 -47.6575   5.5801  11.2189  12.1112  13.4952
    13.8550  14.2159  15.7143  17.2066  21.0379  22.7804  27.4757

          k = 0.1520 0.3040 0.3832 (  2670 PWs)   bands (ev):

   -87.3073 -47.7585 -47.6823 -47.6573   6.4849   9.8738  12.3218  13.4264
    14.1043  14.2588  14.8601  17.9361  20.9671  21.6924  26.1896

          k = 0.1520 0.4559 0.0000 (  2659 PWs)   bands (ev):

   -87.3061 -47.7502 -47.7015 -47.6562   6.5173   9.3171  12.7792  13.3049
    13.8058  14.2600  15.7532  21.1897  21.5749  23.3530  24.0741

          k = 0.1520 0.4559 0.1277 (  2673 PWs)   bands (ev):

   -87.3061 -47.7515 -47.7014 -47.6561   6.7284   9.5268  12.5019  13.3885
    13.9386  14.1728  15.7461  19.1957  21.8162  22.1489  25.0721

          k = 0.1520 0.4559 0.2555 (  2677 PWs)   bands (ev):

   -87.3059 -47.7544 -47.7010 -47.6559   7.2912  10.0949  11.9331  13.3609
    14.0373  14.2463  15.5852  17.3081  19.6265  22.3307  26.0337

          k = 0.1520 0.4559 0.3832 (  2677 PWs)   bands (ev):

   -87.3058 -47.7567 -47.7008 -47.6557   7.9018  10.7635  11.3085  13.0658
    14.2655  14.4373  14.9709  16.7138  18.0785  22.7509  26.7673

          k = 0.3040 0.3040 0.0000 (  2658 PWs)   bands (ev):

   -87.3058 -47.7498 -47.6811 -47.6804   5.7747  12.0979  12.4938  13.2256
    13.7535  13.9445  16.1063  18.1367  20.3405  22.9555  25.0326

          k = 0.3040 0.3040 0.1277 (  2668 PWs)   bands (ev):

   -87.3057 -47.7511 -47.6810 -47.6803   6.0133  12.1199  12.3565  13.1130
    13.8050  14.0000  16.4538  18.1568  18.5665  24.1691  25.8244

          k = 0.3040 0.3040 0.2555 (  2672 PWs)   bands (ev):

   -87.3056 -47.7540 -47.6807 -47.6801   6.6746  11.6043  12.1066  13.3684
    13.8884  14.1098  16.5732  17.3887  18.1917  23.7109  23.9243

          k = 0.3040 0.3040 0.3832 (  2675 PWs)   bands (ev):

   -87.3055 -47.7563 -47.6805 -47.6799   7.4735  10.6574  11.9416  13.9400
    14.0102  14.3218  15.2369  18.2023  18.6162  21.5633  22.6821

          k = 0.3040 0.4559 0.0000 (  2651 PWs)   bands (ev):

   -87.3043 -47.7481 -47.6991 -47.6790   7.5463  10.3000  12.9494  13.0768
    13.7374  13.7535  15.6481  18.8442  21.4291  21.7926  24.7982

          k = 0.3040 0.4559 0.1277 (  2651 PWs)   bands (ev):

   -87.3043 -47.7493 -47.6990 -47.6789   7.7441  10.4567  12.3451  13.4693
    13.8341  13.9704  15.7446  18.7974  20.0524  21.6374  23.2757

          k = 0.3040 0.4559 0.2555 (  2658 PWs)   bands (ev):

   -87.3041 -47.7522 -47.6987 -47.6786   8.2724  10.7923  11.7521  13.6386
    14.0024  14.5787  15.9670  17.6247  18.9739  20.7709  22.2357

          k = 0.3040 0.4559 0.3832 (  2673 PWs)   bands (ev):

   -87.3040 -47.7545 -47.6985 -47.6784   8.8541  11.0089  11.2719  13.9293
    14.4764  14.9887  15.7104  16.4613  18.4614  19.7404  22.8544

          k = 0.4559 0.4559 0.0000 (  2644 PWs)   bands (ev):

   -87.3029 -47.7464 -47.6973 -47.6971   8.9259  11.4142  12.0771  13.3163
    13.4032  13.4329  15.4715  17.6103  19.0815  22.1733  26.5612

          k = 0.4559 0.4559 0.1277 (  2646 PWs)   bands (ev):

   -87.3028 -47.7476 -47.6972 -47.6970   9.1139  11.4047  11.7086  13.1405
    13.9862  14.0738  15.5417  17.3376  19.0581  21.1523  24.5101

          k = 0.4559 0.4559 0.2555 (  2652 PWs)   bands (ev):

   -87.3027 -47.7505 -47.6969 -47.6968   9.6055  11.2426  11.2750  13.6912
    14.8224  14.8975  16.0317  16.5050  18.6356  20.0373  22.0048

          k = 0.4559 0.4559 0.3832 (  2668 PWs)   bands (ev):

   -87.3026 -47.7527 -47.6967 -47.6966  10.1074  10.9874  11.1472  14.6331
    15.0826  15.3724  15.9787  17.2586  17.4764  19.5158  19.9564

     the Fermi energy is    16.5466 ev

!    total energy              =    -344.08497505 Ry
     estimated scf accuracy    <          4.1E-09 Ry
     smearing contrib. (-TS)   =       0.00085197 Ry
     internal energy E=F+TS    =    -344.08582702 Ry

     The total energy is F=E-TS. E is the sum of the following terms:
     one-electron contribution =    -221.24138538 Ry
     hartree contribution      =     124.02997985 Ry
     xc contribution           =     -46.15859053 Ry
     ewald contribution        =    -200.71583097 Ry

     convergence has been achieved in   4 iterations

     Forces acting on atoms (cartesian axes, Ry/au):

     atom    1 type  1   force =     0.00000000    0.00000000    0.00000000
     atom    2 type  2   force =     0.00000000    0.00000000    0.00000000

     Total force =     0.000000     Total SCF correction =     0.000000


     Computing stress (Cartesian axis) and pressure

          total   stress  (Ry/bohr**3)                   (kbar)     P=        7.48
   0.00007815   0.00000000   0.00000000           11.50        0.00        0.00
   0.00000000   0.00007815   0.00000000            0.00       11.50        0.00
   0.00000000   0.00000000  -0.00000370            0.00        0.00       -0.54

     Energy error            =      3.5E-06 Ry
     Gradient error          =      0.0E+00 Ry/Bohr
     Cell gradient error     =      5.4E-01 kbar

     number of scf cycles    =   5
     number of bfgs steps    =   4

     enthalpy           old  =    -344.0849715141 Ry
     enthalpy           new  =    -344.0849750520 Ry

     CASE: enthalpy          _new < enthalpy          _old

     new trust radius        =       0.0005664183 bohr
     new conv_thr            =       0.0000000100 Ry

     new unit-cell volume =    153.28134 a.u.^3 (    22.71395 Ang^3 )
     density =      6.34411 g/cm^3

CELL_PARAMETERS (alat=  5.37330365)
   0.940000000   0.000000000   0.000000000
   0.000000000   0.940000000   0.000000000
   0.000000000   0.000000000   1.118174118

ATOMIC_POSITIONS (crystal)
Si               0.0000000000        0.0000000000        0.0000000000
Ni               0.5000000000        0.5000000000        0.5000000000



     Writing config-only to output data dir ./tmp/SiNi-relax.save/ :
     XML data file
     NEW-OLD atomic charge density approx. for the potential
     New effective cutoffs (rho, wfc):  435.93  109.99

     total cpu time spent up to now is       62.8 secs

     Self-consistent Calculation

     iteration #  1     ecut=   110.00 Ry     beta= 0.70
     Davidson diagonalization with overlap
     ethr =  1.00E-06,  avg # of iterations =  1.0

     Threshold (ethr) on eigenvalues was too large:
     Diagonalizing with lowered threshold

     Davidson diagonalization with overlap
     ethr =  3.93E-10,  avg # of iterations =  3.7

     total cpu time spent up to now is       66.2 secs

     total energy              =    -344.08497507 Ry
     estimated scf accuracy    <       0.00000022 Ry

     iteration #  2     ecut=   110.00 Ry     beta= 0.70
     Davidson diagonalization with overlap
     ethr =  1.02E-09,  avg # of iterations =  2.9

     total cpu time spent up to now is       68.0 secs

     total energy              =    -344.08497492 Ry
     estimated scf accuracy    <       0.00000251 Ry

     iteration #  3     ecut=   110.00 Ry     beta= 0.70
     Davidson diagonalization with overlap
     ethr =  1.02E-09,  avg # of iterations =  2.2

     total cpu time spent up to now is       69.7 secs

     End of self-consistent calculation

          k = 0.0000 0.0000 0.0000 (  2629 PWs)   bands (ev):

   -87.3067 -47.7517 -47.6461 -47.6461   2.5389  12.3728  12.7064  14.3825
    14.3825  14.8531  15.7847  21.2617  21.2617  21.6557  23.9201

          k = 0.0000 0.0000 0.1278 (  2670 PWs)   bands (ev):

   -87.3067 -47.7531 -47.6460 -47.6460   2.8249  11.7465  12.7628  14.2757
    14.2757  14.8600  15.0058  21.6637  21.6637  23.4740  23.8194

          k = 0.0000 0.0000 0.2555 (  2678 PWs)   bands (ev):

   -87.3066 -47.7562 -47.6458 -47.6458   3.6462   9.8900  12.8940  14.0563
    14.0563  14.5408  14.8754  22.7418  22.7418  23.5803  26.4962

          k = 0.0000 0.0000 0.3833 (  2702 PWs)   bands (ev):

   -87.3065 -47.7587 -47.6457 -47.6457   4.7637   7.9877  13.0040  13.8969
    13.8969  14.5200  14.8878  23.3756  24.1005  24.1005  27.6463

          k = 0.0000 0.1520 0.0000 (  2669 PWs)   bands (ev):

   -87.3059 -47.7508 -47.6565 -47.6453   2.9611  12.4732  12.6833  13.7604
    14.4135  14.6594  16.7531  18.4254  21.7564  21.7812  25.5714

          k = 0.0000 0.1520 0.1278 (  2666 PWs)   bands (ev):

   -87.3059 -47.7522 -47.6564 -47.6452   3.2417  11.9359  12.7124  13.6746
    14.3108  14.6761  15.7614  18.7472  22.1518  23.6490  25.6012

          k = 0.0000 0.1520 0.2555 (  2676 PWs)   bands (ev):

   -87.3058 -47.7552 -47.6562 -47.6450   4.0443  10.2044  12.8852  13.6325
    14.1054  14.7041  14.8722  19.5442  23.1408  25.0337  26.7671

          k = 0.0000 0.1520 0.3833 (  2686 PWs)   bands (ev):

   -87.3057 -47.7577 -47.6560 -47.6448   5.1200   8.3951  13.0765  13.5646
    13.9564  14.5867  14.7240  20.4025  24.3342  24.3522  25.9590

          k = 0.0000 0.3040 0.0000 (  2669 PWs)   bands (ev):

   -87.3041 -47.7486 -47.6798 -47.6434   4.2036  11.5119  12.9212  13.0463
    14.2760  14.4836  16.0821  18.5452  22.0063  23.1724  26.5983

          k = 0.0000 0.3040 0.1278 (  2679 PWs)   bands (ev):

   -87.3041 -47.7500 -47.6796 -47.6433   4.4658  11.6396  12.3234  13.2511
    14.2837  14.4147  16.1376  17.1787  23.4592  23.8241  25.2488

          k = 0.0000 0.3040 0.2555 (  2678 PWs)   bands (ev):

   -87.3039 -47.7529 -47.6794 -47.6431   5.2049  10.9845  12.0224  13.3375
    14.2092  14.3611  15.2801  17.0761  22.3330  24.1899  26.6472

          k = 0.0000 0.3040 0.3833 (  2679 PWs)   bands (ev):

   -87.3038 -47.7553 -47.6791 -47.6430   6.1433   9.5494  12.3929  13.2615
    14.0924  14.3835  14.7121  17.7847  20.5697  24.9447  27.2360

          k = 0.0000 0.4559 0.0000 (  2675 PWs)   bands (ev):

   -87.3027 -47.7469 -47.6984 -47.6419   6.1572   8.9680  12.6588  13.1910
    14.0061  14.5406  15.7739  20.8346  22.3047  23.6746  25.1148

          k = 0.0000 0.4559 0.1278 (  2674 PWs)   bands (ev):

   -87.3026 -47.7482 -47.6982 -47.6418   6.3731   9.1870  12.4841  13.2143
    14.0299  14.4717  15.7091  18.8516  21.5206  25.0374  25.2374

          k = 0.0000 0.4559 0.2555 (  2671 PWs)   bands (ev):

   -87.3025 -47.7511 -47.6979 -47.6416   6.9477   9.7977  11.9858  13.1649
    14.0842  14.3228  15.3554  17.1789  19.2822  25.4784  27.4762

          k = 0.0000 0.4559 0.3833 (  2666 PWs)   bands (ev):

   -87.3024 -47.7535 -47.6976 -47.6414   7.5666  10.5970  11.2984  12.8655
    14.1299  14.2074  14.8188  16.7563  17.8959  25.6430  28.8533

          k = 0.1520 0.1520 0.0000 (  2686 PWs)   bands (ev):

   -87.3051 -47.7498 -47.6558 -47.6554   3.3787  12.5852  12.6936  13.6170
    14.1916  14.4274  17.4855  18.3253  19.5111  21.9593  28.3687

          k = 0.1520 0.1520 0.1278 (  2671 PWs)   bands (ev):

   -87.3051 -47.7512 -47.6557 -47.6553   3.6537  12.0932  12.7525  13.5723
    14.0361  14.4508  16.3339  18.6563  19.7876  24.0427  28.0861

          k = 0.1520 0.1520 0.2555 (  2672 PWs)   bands (ev):

   -87.3050 -47.7542 -47.6555 -47.6551   4.4379  10.5002  12.9092  13.7080
    13.7220  14.4934  15.2209  19.4646  20.5244  26.4481  26.7895

          k = 0.1520 0.1520 0.3833 (  2677 PWs)   bands (ev):

   -87.3049 -47.7567 -47.6553 -47.6549   5.4737   8.7878  13.1246  13.3875
    13.9682  14.5178  14.7054  20.2979  21.4361  24.8855  24.9904

          k = 0.1520 0.3040 0.0000 (  2671 PWs)   bands (ev):

   -87.3033 -47.7477 -47.6788 -47.6536   4.6053  11.7356  12.9530  13.1277
    14.0900  14.1854  16.2267  19.0898  20.2222  22.4316  28.4950

          k = 0.1520 0.3040 0.1278 (  2684 PWs)   bands (ev):

   -87.3033 -47.7490 -47.6787 -47.6535   4.8622  11.8505  12.4179  13.3373
    14.0077  14.1685  16.4089  17.5544  20.4538  24.6220  25.4062

          k = 0.1520 0.3040 0.2555 (  2679 PWs)   bands (ev):

   -87.3031 -47.7520 -47.6784 -47.6533   5.5834  11.2229  12.1142  13.4991
    13.8587  14.2195  15.7196  17.2116  21.0423  22.7859  27.4823

          k = 0.1520 0.3040 0.3833 (  2670 PWs)   bands (ev):

   -87.3030 -47.7543 -47.6782 -47.6531   6.4890   9.8772  12.3250  13.4301
    14.1081  14.2624  14.8651  17.9417  20.9714  21.6975  26.1937

          k = 0.1520 0.4559 0.0000 (  2659 PWs)   bands (ev):

   -87.3019 -47.7460 -47.6973 -47.6520   6.5199   9.3197  12.7838  13.3084
    13.8091  14.2641  15.7574  21.1976  21.5789  23.3602  24.0823

          k = 0.1520 0.4559 0.1278 (  2673 PWs)   bands (ev):

   -87.3018 -47.7473 -47.6972 -47.6520   6.7312   9.5296  12.5060  13.3922
    13.9421  14.1768  15.7504  19.2025  21.8210  22.1552  25.0772

          k = 0.1520 0.4559 0.2555 (  2677 PWs)   bands (ev):

   -87.3017 -47.7502 -47.6969 -47.6517   7.2944  10.0981  11.9367  13.3646
    14.0411  14.2500  15.5898  17.3140  19.6323  22.3351  26.0381

          k = 0.1520 0.4559 0.3833 (  2677 PWs)   bands (ev):

   -87.3016 -47.7525 -47.6966 -47.6516   7.9056  10.7672  11.3117  13.0693
    14.2694  14.4410  14.9757  16.7195  18.0832  22.7558  26.7722

          k = 0.3040 0.3040 0.0000 (  2658 PWs)   bands (ev):

   -87.3015 -47.7456 -47.6769 -47.6763   5.7773  12.1007  12.4965  13.2301
    13.7576  13.9479  16.1105  18.1410  20.3483  22.9627  25.0378

          k = 0.3040 0.3040 0.1278 (  2668 PWs)   bands (ev):

   -87.3015 -47.7469 -47.6768 -47.6762   6.0161  12.1230  12.3594  13.1173
    13.8089  14.0034  16.4581  18.1612  18.5734  24.1742  25.8316

          k = 0.3040 0.3040 0.2555 (  2672 PWs)   bands (ev):

   -87.3013 -47.7498 -47.6765 -47.6759   6.6779  11.6079  12.1095  13.3722
    13.8922  14.1134  16.5789  17.3934  18.1965  23.7165  23.9299

          k = 0.3040 0.3040 0.3833 (  2675 PWs)   bands (ev):

   -87.3013 -47.7521 -47.6763 -47.6757   7.4774  10.6605  11.9445  13.9438
    14.0138  14.3259  15.2419  18.2074  18.6218  21.5676  22.6865

          k = 0.3040 0.4559 0.0000 (  2651 PWs)   bands (ev):

   -87.3001 -47.7439 -47.6950 -47.6748   7.5488  10.3026  12.9523  13.0812
    13.7416  13.7569  15.6522  18.8486  21.4329  21.8004  24.8065

          k = 0.3040 0.4559 0.1278 (  2651 PWs)   bands (ev):

   -87.3000 -47.7451 -47.6948 -47.6747   7.7467  10.4595  12.3486  13.4731
    13.8380  13.9740  15.7488  18.8021  20.0589  21.6413  23.2830

          k = 0.3040 0.4559 0.2555 (  2658 PWs)   bands (ev):

   -87.2999 -47.7480 -47.6945 -47.6745   8.2754  10.7953  11.7553  13.6425
    14.0061  14.5826  15.9715  17.6305  18.9787  20.7767  22.2403

          k = 0.3040 0.4559 0.3833 (  2673 PWs)   bands (ev):

   -87.2998 -47.7503 -47.6943 -47.6743   8.8577  11.0121  11.2748  13.9329
    14.4808  14.9926  15.7151  16.4666  18.4658  19.7459  22.8595

          k = 0.4559 0.4559 0.0000 (  2644 PWs)   bands (ev):

   -87.2986 -47.7422 -47.6931 -47.6930   8.9282  11.4169  12.0798  13.3205
    13.4074  13.4359  15.4756  17.6154  19.0853  22.1810  26.5697

          k = 0.4559 0.4559 0.1278 (  2646 PWs)   bands (ev):

   -87.2986 -47.7434 -47.6930 -47.6929   9.1163  11.4076  11.7115  13.1441
    13.9902  14.0776  15.5458  17.3429  19.0621  21.1588  24.5175

          k = 0.4559 0.4559 0.2555 (  2652 PWs)   bands (ev):

   -87.2985 -47.7463 -47.6927 -47.6926   9.6082  11.2456  11.2779  13.6951
    14.8263  14.9015  16.0360  16.5104  18.6401  20.0425  22.0108

          k = 0.4559 0.4559 0.3833 (  2668 PWs)   bands (ev):

   -87.2984 -47.7485 -47.6925 -47.6924  10.1106  10.9903  11.1500  14.6375
    15.0866  15.3774  15.9829  17.2631  17.4811  19.5211  19.9619

     the Fermi energy is    16.5518 ev

!    total energy              =    -344.08497523 Ry
     estimated scf accuracy    <          4.4E-10 Ry
     smearing contrib. (-TS)   =       0.00085421 Ry
     internal energy E=F+TS    =    -344.08582943 Ry

     The total energy is F=E-TS. E is the sum of the following terms:
     one-electron contribution =    -221.21014646 Ry
     hartree contribution      =     124.01721426 Ry
     xc contribution           =     -46.15885162 Ry
[...]
     celldm(4)=   0.000000  celldm(5)=   0.000000  celldm(6)=   0.000000

     crystal axes: (cart. coord. in units of alat)
               a(1) = (   0.940000   0.000000   0.000000 )  
               a(2) = (   0.000000   0.940000   0.000000 )  
               a(3) = (   0.000000   0.000000   1.118174 )  

     reciprocal axes: (cart. coord. in units 2 pi/alat)
               b(1) = (  1.063830  0.000000  0.000000 )  
               b(2) = (  0.000000  1.063830  0.000000 )  
               b(3) = (  0.000000  0.000000  0.894315 )  


     PseudoPot. # 1 for Si read from file:
     ./PSEUDO/Si.upf
     MD5 check sum: 02fab3f35e82123ef5bf1cb05d5b1a5e
     Pseudo is Norm-conserving + core correction, Zval =  4.0
     Generated using ONCVPSP code by D. R. Hamann
     Using radial grid of 1510 points,  6 beta functions with: 
                l(1) =   0
                l(2) =   0
                l(3) =   1
                l(4) =   1
                l(5) =   2
                l(6) =   2

     PseudoPot. # 2 for Ni read from file:
     ./PSEUDO/Ni.upf
     MD5 check sum: 2b0a79d100e227970886d6963e34175b
     Pseudo is Norm-conserving + core correction, Zval = 18.0
     Generated using ONCVPSP code by D. R. Hamann
     Using radial grid of 1372 points,  6 beta functions with: 
                l(1) =   0
                l(2) =   0
                l(3) =   1
                l(4) =   1
                l(5) =   2
                l(6) =   2

     atomic species   valence    mass     pseudopotential
     Si                4.00    28.08550     Si( 1.00)
     Ni               18.00    58.69340     Ni( 1.00)

     16 Sym. Ops., with inversion, found



   Cartesian axes

     site n.     atom                  positions (alat units)
         1        Si     tau(   1) = (   0.0000000   0.0000000   0.0000000  )
         2        Ni     tau(   2) = (   0.4700000   0.4700000   0.5590871  )

     number of k points=    40  Methfessel-Paxton smearing, width (Ry)=  0.0400
                       cart. coord. in units 2pi/alat
        k(    1) = (   0.0000000   0.0000000   0.0000000), wk =   0.0058309
        k(    2) = (   0.0000000   0.0000000   0.1277593), wk =   0.0116618
        k(    3) = (   0.0000000   0.0000000   0.2555186), wk =   0.0116618
        k(    4) = (   0.0000000   0.0000000   0.3832779), wk =   0.0116618
        k(    5) = (   0.0000000   0.1519757   0.0000000), wk =   0.0233236
        k(    6) = (   0.0000000   0.1519757   0.1277593), wk =   0.0466472
        k(    7) = (   0.0000000   0.1519757   0.2555186), wk =   0.0466472
        k(    8) = (   0.0000000   0.1519757   0.3832779), wk =   0.0466472
        k(    9) = (   0.0000000   0.3039514   0.0000000), wk =   0.0233236
        k(   10) = (   0.0000000   0.3039514   0.1277593), wk =   0.0466472
        k(   11) = (   0.0000000   0.3039514   0.2555186), wk =   0.0466472
        k(   12) = (   0.0000000   0.3039514   0.3832779), wk =   0.0466472
        k(   13) = (   0.0000000   0.4559271   0.0000000), wk =   0.0233236
        k(   14) = (   0.0000000   0.4559271   0.1277593), wk =   0.0466472
        k(   15) = (   0.0000000   0.4559271   0.2555186), wk =   0.0466472
        k(   16) = (   0.0000000   0.4559271   0.3832779), wk =   0.0466472
        k(   17) = (   0.1519757   0.1519757   0.0000000), wk =   0.0233236
        k(   18) = (   0.1519757   0.1519757   0.1277593), wk =   0.0466472
        k(   19) = (   0.1519757   0.1519757   0.2555186), wk =   0.0466472
        k(   20) = (   0.1519757   0.1519757   0.3832779), wk =   0.0466472
        k(   21) = (   0.1519757   0.3039514   0.0000000), wk =   0.0466472
        k(   22) = (   0.1519757   0.3039514   0.1277593), wk =   0.0932945
        k(   23) = (   0.1519757   0.3039514   0.2555186), wk =   0.0932945
        k(   24) = (   0.1519757   0.3039514   0.3832779), wk =   0.0932945
        k(   25) = (   0.1519757   0.4559271   0.0000000), wk =   0.0466472
        k(   26) = (   0.1519757   0.4559271   0.1277593), wk =   0.0932945
        k(   27) = (   0.1519757   0.4559271   0.2555186), wk =   0.0932945
        k(   28) = (   0.1519757   0.4559271   0.3832779), wk =   0.0932945
        k(   29) = (   0.3039514   0.3039514   0.0000000), wk =   0.0233236
        k(   30) = (   0.3039514   0.3039514   0.1277593), wk =   0.0466472
        k(   31) = (   0.3039514   0.3039514   0.2555186), wk =   0.0466472
        k(   32) = (   0.3039514   0.3039514   0.3832779), wk =   0.0466472
        k(   33) = (   0.3039514   0.4559271   0.0000000), wk =   0.0466472
        k(   34) = (   0.3039514   0.4559271   0.1277593), wk =   0.0932945
        k(   35) = (   0.3039514   0.4559271   0.2555186), wk =   0.0932945
        k(   36) = (   0.3039514   0.4559271   0.3832779), wk =   0.0932945
        k(   37) = (   0.4559271   0.4559271   0.0000000), wk =   0.0233236
        k(   38) = (   0.4559271   0.4559271   0.1277593), wk =   0.0466472
        k(   39) = (   0.4559271   0.4559271   0.2555186), wk =   0.0466472
        k(   40) = (   0.4559271   0.4559271   0.3832779), wk =   0.0466472

     Dense  grid:    23885 G-vectors     FFT dimensions: (  36,  36,  45)

     Estimated max dynamical RAM per process >      54.17 MB

     Initial potential from superposition of free atoms

     starting charge      21.9992, renormalised to      22.0000
     Starting wfcs are   14 randomized atomic wfcs +    1 random wfcs

     total cpu time spent up to now is       71.7 secs

     Self-consistent Calculation

     iteration #  1     ecut=   110.00 Ry     beta= 0.70
     Davidson diagonalization with overlap
     ethr =  1.00E-06,  avg # of iterations = 12.2

     total cpu time spent up to now is       76.8 secs

     total energy              =    -343.95744918 Ry
     estimated scf accuracy    <       0.20140657 Ry

     iteration #  2     ecut=   110.00 Ry     beta= 0.70
     Davidson diagonalization with overlap
     ethr =  9.15E-04,  avg # of iterations =  2.7

     total cpu time spent up to now is       79.1 secs

     total energy              =    -343.72441610 Ry
     estimated scf accuracy    <       2.82738689 Ry

     iteration #  3     ecut=   110.00 Ry     beta= 0.70
     Davidson diagonalization with overlap
     ethr =  9.15E-04,  avg # of iterations =  2.5

     total cpu time spent up to now is       81.1 secs

     total energy              =    -344.08415707 Ry
     estimated scf accuracy    <       0.00692172 Ry

     iteration #  4     ecut=   110.00 Ry     beta= 0.70
     Davidson diagonalization with overlap
     ethr =  3.15E-05,  avg # of iterations =  2.0

     total cpu time spent up to now is       82.9 secs

     total energy              =    -344.08494934 Ry
     estimated scf accuracy    <       0.00070684 Ry

     iteration #  5     ecut=   110.00 Ry     beta= 0.70
     Davidson diagonalization with overlap
     ethr =  3.21E-06,  avg # of iterations =  1.8

     total cpu time spent up to now is       84.7 secs

     total energy              =    -344.08501775 Ry
     estimated scf accuracy    <       0.00003612 Ry

     iteration #  6     ecut=   110.00 Ry     beta= 0.70
     Davidson diagonalization with overlap
     ethr =  1.64E-07,  avg # of iterations =  2.1

     total cpu time spent up to now is       86.6 secs

     total energy              =    -344.08502687 Ry
     estimated scf accuracy    <       0.00000934 Ry

     iteration #  7     ecut=   110.00 Ry     beta= 0.70
     Davidson diagonalization with overlap
     ethr =  4.24E-08,  avg # of iterations =  1.4

     total cpu time spent up to now is       88.2 secs

     total energy              =    -344.08502761 Ry
     estimated scf accuracy    <       0.00000045 Ry

     iteration #  8     ecut=   110.00 Ry     beta= 0.70
     Davidson diagonalization with overlap
     ethr =  2.03E-09,  avg # of iterations =  2.7

     total cpu time spent up to now is       90.2 secs

     total energy              =    -344.08502774 Ry
     estimated scf accuracy    <       0.00000004 Ry

     iteration #  9     ecut=   110.00 Ry     beta= 0.70
     Davidson diagonalization with overlap
     ethr =  2.01E-10,  avg # of iterations =  1.5

     total cpu time spent up to now is       91.8 secs

     End of self-consistent calculation

          k = 0.0000 0.0000 0.0000 (  2993 PWs)   bands (ev):

   -87.3069 -47.7523 -47.6462 -47.6462   2.5389  12.3725  12.7064  14.3823
    14.3823  14.8531  15.7846  21.2617  21.2617  21.6555  23.9201

          k = 0.0000 0.0000 0.1278 (  2984 PWs)   bands (ev):

   -87.3069 -47.7537 -47.6461 -47.6461   2.8248  11.7463  12.7629  14.2754
    14.2754  14.8600  15.0056  21.6636  21.6636  23.4739  23.8193

          k = 0.0000 0.0000 0.2555 (  2996 PWs)   bands (ev):

   -87.3067 -47.7568 -47.6459 -47.6459   3.6462   9.8900  12.8940  14.0560
    14.0560  14.5404  14.8754  22.7417  22.7417  23.5803  26.4961

          k = 0.0000 0.0000 0.3833 (  3000 PWs)   bands (ev):

   -87.3066 -47.7592 -47.6457 -47.6457   4.7637   7.9877  13.0040  13.8967
    13.8967  14.5197  14.8878  23.3756  24.1004  24.1004  27.6463

          k = 0.0000 0.1520 0.0000 (  2983 PWs)   bands (ev):

   -87.3061 -47.7514 -47.6565 -47.6453   2.9611  12.4729  12.6832  13.7602
    14.4132  14.6593  16.7530  18.4253  21.7562  21.7811  25.5713

          k = 0.0000 0.1520 0.1278 (  2993 PWs)   bands (ev):

   -87.3060 -47.7527 -47.6564 -47.6452   3.2416  11.9358  12.7124  13.6744
    14.3106  14.6760  15.7613  18.7472  22.1517  23.6489  25.6012

          k = 0.0000 0.1520 0.2555 (  2992 PWs)   bands (ev):

   -87.3059 -47.7558 -47.6562 -47.6450   4.0443  10.2043  12.8852  13.6323
    14.1051  14.7041  14.8719  19.5441  23.1407  25.0337  26.7670

          k = 0.0000 0.1520 0.3833 (  2995 PWs)   bands (ev):

   -87.3058 -47.7582 -47.6560 -47.6449   5.1200   8.3951  13.0765  13.5644
    13.9561  14.5864  14.7239  20.4024  24.3342  24.3522  25.9590

          k = 0.0000 0.3040 0.0000 (  2971 PWs)   bands (ev):

   -87.3043 -47.7492 -47.6798 -47.6434   4.2036  11.5119  12.9209  13.0461
    14.2760  14.4833  16.0820  18.5451  22.0062  23.1724  26.5983

          k = 0.0000 0.3040 0.1278 (  2998 PWs)   bands (ev):

   -87.3042 -47.7506 -47.6797 -47.6434   4.4658  11.6395  12.3233  13.2509
    14.2837  14.4145  16.1375  17.1786  23.4592  23.8240  25.2487

          k = 0.0000 0.3040 0.2555 (  2992 PWs)   bands (ev):

   -87.3041 -47.7535 -47.6794 -47.6432   5.2049  10.9844  12.0223  13.3374
    14.2090  14.3611  15.2798  17.0760  22.3330  24.1899  26.6471

          k = 0.0000 0.3040 0.3833 (  2999 PWs)   bands (ev):

   -87.3040 -47.7559 -47.6792 -47.6430   6.1432   9.5494  12.3928  13.2615
    14.0922  14.3835  14.7117  17.7845  20.5696  24.9446  27.2359

          k = 0.0000 0.4559 0.0000 (  2989 PWs)   bands (ev):

   -87.3028 -47.7475 -47.6984 -47.6419   6.1572   8.9680  12.6586  13.1908
    14.0061  14.5403  15.7736  20.8345  22.3047  23.6745  25.1148

          k = 0.0000 0.4559 0.1278 (  2971 PWs)   bands (ev):

   -87.3028 -47.7488 -47.6983 -47.6418   6.3731   9.1870  12.4839  13.2141
    14.0299  14.4714  15.7089  18.8515  21.5205  25.0373  25.2374

          k = 0.0000 0.4559 0.2555 (  3000 PWs)   bands (ev):

   -87.3027 -47.7517 -47.6980 -47.6416   6.9477   9.7977  11.9857  13.1647
    14.0841  14.3225  15.3552  17.1787  19.2821  25.4784  27.4762

          k = 0.0000 0.4559 0.3833 (  2998 PWs)   bands (ev):

   -87.3026 -47.7540 -47.6977 -47.6415   7.5665  10.5969  11.2983  12.8654
    14.1298  14.2071  14.8185  16.7560  17.8959  25.6430  28.8533

          k = 0.1520 0.1520 0.0000 (  2984 PWs)   bands (ev):

   -87.3053 -47.7504 -47.6559 -47.6554   3.3786  12.5849  12.6936  13.6168
    14.1913  14.4274  17.4854  18.3253  19.5110  21.9591  28.3687

          k = 0.1520 0.1520 0.1278 (  2984 PWs)   bands (ev):

   -87.3052 -47.7518 -47.6558 -47.6554   3.6537  12.0930  12.7525  13.5721
    14.0359  14.4507  16.3337  18.6563  19.7875  24.0426  28.0861

          k = 0.1520 0.1520 0.2555 (  2998 PWs)   bands (ev):

   -87.3051 -47.7548 -47.6555 -47.6551   4.4379  10.5001  12.9092  13.7078
    13.7217  14.4934  15.2206  19.4645  20.5243  26.4480  26.7895

          k = 0.1520 0.1520 0.3833 (  3002 PWs)   bands (ev):

   -87.3050 -47.7572 -47.6554 -47.6550   5.4737   8.7878  13.1245  13.3874
    13.9680  14.5177  14.7051  20.2978  21.4360  24.8855  24.9903

          k = 0.1520 0.3040 0.0000 (  2979 PWs)   bands (ev):

   -87.3035 -47.7483 -47.6788 -47.6537   4.6053  11.7356  12.9528  13.1275
    14.0899  14.1851  16.2266  19.0897  20.2221  22.4316  27.3439

          k = 0.1520 0.3040 0.1278 (  2992 PWs)   bands (ev):

   -87.3034 -47.7496 -47.6787 -47.6536   4.8621  11.8505  12.4178  13.3372
    14.0075  14.1683  16.4088  17.5543  20.4538  24.6219  25.4061

          k = 0.1520 0.3040 0.2555 (  2995 PWs)   bands (ev):

   -87.3033 -47.7525 -47.6784 -47.6534   5.5834  11.2228  12.1141  13.4990
    13.8585  14.2194  15.7193  17.2115  21.0422  22.7859  27.4823

          k = 0.1520 0.3040 0.3833 (  3002 PWs)   bands (ev):

   -87.3032 -47.7549 -47.6782 -47.6532   6.4890   9.8771  12.3248  13.4301
    14.1079  14.2624  14.8648  17.9415  20.9714  21.6974  26.1937

          k = 0.1520 0.4559 0.0000 (  2981 PWs)   bands (ev):

   -87.3020 -47.7466 -47.6974 -47.6521   6.5199   9.3197  12.7836  13.3081
    13.8091  14.2639  15.7572  21.1975  21.5789  23.3601  24.0822

          k = 0.1520 0.4559 0.1278 (  2987 PWs)   bands (ev):

   -87.3020 -47.7479 -47.6972 -47.6520   6.7312   9.5296  12.5059  13.3920
    13.9421  14.1765  15.7502  19.2024  21.8210  22.1552  25.0772

          k = 0.1520 0.4559 0.2555 (  2988 PWs)   bands (ev):

   -87.3019 -47.7507 -47.6969 -47.6518   7.2943  10.0980  11.9366  13.3645
    14.0409  14.2499  15.5895  17.3139  19.6323  22.3351  26.0380

          k = 0.1520 0.4559 0.3833 (  2983 PWs)   bands (ev):

   -87.3018 -47.7530 -47.6967 -47.6516   7.9055  10.7671  11.3116  13.0693
    14.2691  14.4410  14.9754  16.7192  18.0831  22.7557  26.7721

          k = 0.3040 0.3040 0.0000 (  2984 PWs)   bands (ev):

   -87.3017 -47.7462 -47.6770 -47.6763   5.7773  12.1006  12.4965  13.2299
    13.7574  13.9476  16.1105  18.1408  20.3482  22.9626  25.0376

          k = 0.3040 0.3040 0.1278 (  2978 PWs)   bands (ev):

   -87.3016 -47.7475 -47.6768 -47.6762   6.0161  12.1230  12.3593  13.1171
    13.8088  14.0032  16.4581  18.1611  18.5733  24.1742  25.8316

          k = 0.3040 0.3040 0.2555 (  2983 PWs)   bands (ev):

   -87.3015 -47.7503 -47.6766 -47.6760   6.6778  11.6078  12.1094  13.3721
    13.8921  14.1132  16.5787  17.3933  18.1964  23.7164  23.9299

          k = 0.3040 0.3040 0.3833 (  2988 PWs)   bands (ev):

   -87.3014 -47.7526 -47.6763 -47.6758   7.4774  10.6605  11.9444  13.9438
    14.0137  14.3257  15.2417  18.2073  18.6216  21.5676  22.6864

          k = 0.3040 0.4559 0.0000 (  2981 PWs)   bands (ev):

   -87.3002 -47.7445 -47.6950 -47.6749   7.5488  10.3026  12.9523  13.0810
    13.7413  13.7566  15.6521  18.8485  21.4327  21.8003  24.8064

          k = 0.3040 0.4559 0.1278 (  2970 PWs)   bands (ev):

   -87.3002 -47.7458 -47.6949 -47.6748   7.7467  10.4594  12.3485  13.4729
    13.8378  13.9738  15.7487  18.8020  20.0588  21.6412  23.2829

          k = 0.3040 0.4559 0.2555 (  2978 PWs)   bands (ev):

   -87.3001 -47.7486 -47.6946 -47.6745   8.2754  10.7953  11.7552  13.6423
    14.0060  14.5825  15.9713  17.6304  18.9787  20.7766  22.2402

          k = 0.3040 0.4559 0.3833 (  2983 PWs)   bands (ev):

   -87.3000 -47.7508 -47.6944 -47.6743   8.8577  11.0120  11.2748  13.9329
    14.4806  14.9925  15.7149  16.4665  18.4658  19.7458  22.8595

          k = 0.4559 0.4559 0.0000 (  2978 PWs)   bands (ev):

   -87.2988 -47.7428 -47.6932 -47.6930   8.9282  11.4169  12.0798  13.3203
    13.4071  13.4357  15.4756  17.6153  19.0850  22.1810  26.5696

          k = 0.4559 0.4559 0.1278 (  2978 PWs)   bands (ev):

   -87.2987 -47.7441 -47.6930 -47.6929   9.1163  11.4076  11.7114  13.1439
    13.9900  14.0774  15.5458  17.3428  19.0617  21.1587  24.5174

          k = 0.4559 0.4559 0.2555 (  2969 PWs)   bands (ev):

   -87.2986 -47.7468 -47.6928 -47.6926   9.6082  11.2455  11.2779  13.6949
    14.8263  14.9014  16.0359  16.5103  18.6399  20.0424  22.0107

          k = 0.4559 0.4559 0.3833 (  2958 PWs)   bands (ev):

   -87.2985 -47.7491 -47.6926 -47.6924  10.1106  10.9902  11.1499  14.6372
    15.0866  15.3773  15.9828  17.2630  17.4810  19.5210  19.9617

     the Fermi energy is    16.5517 ev

!    total energy              =    -344.08502773 Ry
     estimated scf accuracy    <          9.7E-09 Ry
     smearing contrib. (-TS)   =       0.00085373 Ry
     internal energy E=F+TS    =    -344.08588146 Ry

     The total energy is F=E-TS. E is the sum of the following terms:
     one-electron contribution =    -221.21149805 Ry
     hartree contribution      =     124.01868323 Ry
     xc contribution           =     -46.15902102 Ry
     ewald contribution        =    -200.73404562 Ry

     convergence has been achieved in   9 iterations

     Forces acting on atoms (cartesian axes, Ry/au):

     atom    1 type  1   force =     0.00000000    0.00000000    0.00000000
     atom    2 type  2   force =     0.00000000    0.00000000    0.00000000

     Total force =     0.000000     Total SCF correction =     0.000000


     Computing stress (Cartesian axis) and pressure

          total   stress  (Ry/bohr**3)                   (kbar)     P=        9.18
   0.00008395   0.00000000   0.00000000           12.35        0.00        0.00
   0.00000000   0.00008395   0.00000000            0.00       12.35        0.00
   0.00000000   0.00000000   0.00001927            0.00        0.00        2.83


     Writing all to output data dir ./tmp/SiNi-relax.save/ :
     XML data file, charge density, pseudopotentials, collected wavefunctions

     init_run     :      1.69s CPU      1.76s WALL (       2 calls)
     electrons    :     79.65s CPU     82.22s WALL (       7 calls)
     update_pot   :      0.07s CPU      0.08s WALL (       5 calls)
     forces       :      1.83s CPU      1.88s WALL (       7 calls)
     stress       :      7.08s CPU      7.19s WALL (       7 calls)

     Called by init_run:
     wfcinit      :      1.03s CPU      1.08s WALL (       2 calls)
     potinit      :      0.16s CPU      0.17s WALL (       2 calls)
     hinit0       :      0.48s CPU      0.48s WALL (       2 calls)

     Called by electrons:
     c_bands      :     71.64s CPU     73.79s WALL (      44 calls)
     sum_band     :      7.47s CPU      7.85s WALL (      44 calls)
     v_of_rho     :      0.53s CPU      0.56s WALL (      48 calls)
     mix_rho      :      0.06s CPU      0.07s WALL (      44 calls)

     Called by c_bands:
     init_us_2    :      2.23s CPU      2.36s WALL (    4160 calls)
     cegterg      :     68.01s CPU     70.06s WALL (    1760 calls)

     Called by *egterg:
     cdiaghg      :      0.94s CPU      0.99s WALL (    6512 calls)
     h_psi        :     49.36s CPU     51.19s WALL (    6912 calls)
     g_psi        :      0.38s CPU      0.40s WALL (    5072 calls)

     Called by h_psi:
     h_psi:calbec :      6.55s CPU      6.71s WALL (    6912 calls)
     vloc_psi     :     36.41s CPU     37.99s WALL (    6912 calls)
                                        0.00s GPU  (    6912 calls)
     add_vuspsi   :      6.07s CPU      6.17s WALL (    6912 calls)

     General routines
     calbec       :     12.52s CPU     12.77s WALL (   11672 calls)
     fft          :      0.23s CPU      0.23s WALL (     656 calls)
     ffts         :      0.02s CPU      0.02s WALL (      44 calls)
     fftw         :     36.79s CPU     38.90s WALL (  177342 calls)


     PWSCF        :   1m30.40s CPU   1m33.23s WALL


   This run was terminated on:  20:25:29   7Jan2026            

=------------------------------------------------------------------------------=
   JOB DONE.
=------------------------------------------------------------------------------=
