
     Program PWSCF v.7.5 starts on  8Jan2026 at 19:47:18 

     This program is part of the open-source Quantum ESPRESSO suite
     for quantum simulation of materials; please cite
         "P. Giannozzi et al., J. Phys.:Condens. Matter 21 395502 (2009);
         "P. Giannozzi et al., J. Phys.:Condens. Matter 29 465901 (2017);
         "P. Giannozzi et al., J. Chem. Phys. 152 154105 (2020);
          URL http://www.quantum-espresso.org", 
     in publications or presentations arising from this work. More details at
     http://www.quantum-espresso.org/quote

     Serial version
     1119 MiB available memory on the printing compute node when the environment starts

     Waiting for input...
     Reading input from standard input

     Current dimensions of program PWSCF are:
     Max number of different atomic species (ntypx) = 10
     Max number of k-points (npk) =  40000
     Max angular momentum in pseudopotentials (lmaxx) =  4
     Message from routine setup:
     using ibrav=0 with symmetry is DISCOURAGED, use correct ibrav instead


     G-vector sticks info
     --------------------
     sticks:   dense  smooth     PW     G-vecs:    dense   smooth      PW
     Sum         593     593    185                13451    13451    2363

     Using Slab Decomposition



     bravais-lattice index     =            0
     lattice parameter (alat)  =       5.3818  a.u.
     unit-cell volume          =      99.7596 (a.u.)^3
     number of atoms/cell      =            2
     number of atomic types    =            2
     number of electrons       =        22.00
     number of Kohn-Sham states=           15
     kinetic-energy cutoff     =     100.0000  Ry
     charge density cutoff     =     400.0000  Ry
     scf convergence threshold =      1.0E-06
     mixing beta               =       0.7000
     number of iterations used =            8  plain     mixing
     energy convergence thresh.=      1.0E-04
     force convergence thresh. =      1.0E-03
     press convergence thresh. =      5.0E-01
     Exchange-correlation= PBE
                           (   1   4   3   4   0   0   0)
     nstep                     =           50


     celldm(1)=   5.381766  celldm(2)=   0.000000  celldm(3)=   0.000000
     celldm(4)=   0.000000  celldm(5)=   0.000000  celldm(6)=   0.000000

     crystal axes: (cart. coord. in units of alat)
               a(1) = (   0.800000   0.000000   0.000000 )  
               a(2) = (   0.000000   0.800000   0.000000 )  
               a(3) = (   0.000000   0.000000   1.000000 )  

     reciprocal axes: (cart. coord. in units 2 pi/alat)
               b(1) = (  1.250000  0.000000  0.000000 )  
               b(2) = (  0.000000  1.250000  0.000000 )  
               b(3) = (  0.000000  0.000000  1.000000 )  


     PseudoPot. # 1 for Si read from file:
     ./PSEUDO/Si.upf
     MD5 check sum: 02fab3f35e82123ef5bf1cb05d5b1a5e
     Pseudo is Norm-conserving + core correction, Zval =  4.0
     Generated using ONCVPSP code by D. R. Hamann
     Using radial grid of 1510 points,  6 beta functions with: 
                l(1) =   0
                l(2) =   0
                l(3) =   1
                l(4) =   1
                l(5) =   2
                l(6) =   2

     PseudoPot. # 2 for Ni read from file:
     ./PSEUDO/Ni.upf
     MD5 check sum: 2b0a79d100e227970886d6963e34175b
     Pseudo is Norm-conserving + core correction, Zval = 18.0
     Generated using ONCVPSP code by D. R. Hamann
     Using radial grid of 1372 points,  6 beta functions with: 
                l(1) =   0
                l(2) =   0
                l(3) =   1
                l(4) =   1
                l(5) =   2
                l(6) =   2

     atomic species   valence    mass     pseudopotential
     Si                4.00    28.08550     Si( 1.00)
     Ni               18.00    58.69340     Ni( 1.00)

     16 Sym. Ops., with inversion, found



   Cartesian axes

     site n.     atom                  positions (alat units)
         1        Si     tau(   1) = (   0.0000000   0.0000000   0.0000000  )
         2        Ni     tau(   2) = (   0.4000000   0.4000000   0.5000000  )

     number of k points=    40  Methfessel-Paxton smearing, width (Ry)=  0.0400
                       cart. coord. in units 2pi/alat
        k(    1) = (   0.0000000   0.0000000   0.0000000), wk =   0.0092593
        k(    2) = (   0.0000000   0.0000000   0.1666667), wk =   0.0185185
        k(    3) = (   0.0000000   0.0000000   0.3333333), wk =   0.0185185
        k(    4) = (   0.0000000   0.0000000  -0.5000000), wk =   0.0092593
        k(    5) = (   0.0000000   0.2083333   0.0000000), wk =   0.0370370
        k(    6) = (   0.0000000   0.2083333   0.1666667), wk =   0.0740741
        k(    7) = (   0.0000000   0.2083333   0.3333333), wk =   0.0740741
        k(    8) = (   0.0000000   0.2083333  -0.5000000), wk =   0.0370370
        k(    9) = (   0.0000000   0.4166667   0.0000000), wk =   0.0370370
        k(   10) = (   0.0000000   0.4166667   0.1666667), wk =   0.0740741
        k(   11) = (   0.0000000   0.4166667   0.3333333), wk =   0.0740741
        k(   12) = (   0.0000000   0.4166667  -0.5000000), wk =   0.0370370
        k(   13) = (   0.0000000  -0.6250000   0.0000000), wk =   0.0185185
        k(   14) = (   0.0000000  -0.6250000   0.1666667), wk =   0.0370370
        k(   15) = (   0.0000000  -0.6250000   0.3333333), wk =   0.0370370
        k(   16) = (   0.0000000  -0.6250000  -0.5000000), wk =   0.0185185
        k(   17) = (   0.2083333   0.2083333   0.0000000), wk =   0.0370370
        k(   18) = (   0.2083333   0.2083333   0.1666667), wk =   0.0740741
        k(   19) = (   0.2083333   0.2083333   0.3333333), wk =   0.0740741
        k(   20) = (   0.2083333   0.2083333  -0.5000000), wk =   0.0370370
        k(   21) = (   0.2083333   0.4166667   0.0000000), wk =   0.0740741
        k(   22) = (   0.2083333   0.4166667   0.1666667), wk =   0.1481481
        k(   23) = (   0.2083333   0.4166667   0.3333333), wk =   0.1481481
        k(   24) = (   0.2083333   0.4166667  -0.5000000), wk =   0.0740741
        k(   25) = (   0.2083333  -0.6250000   0.0000000), wk =   0.0370370
        k(   26) = (   0.2083333  -0.6250000   0.1666667), wk =   0.0740741
        k(   27) = (   0.2083333  -0.6250000   0.3333333), wk =   0.0740741
        k(   28) = (   0.2083333  -0.6250000  -0.5000000), wk =   0.0370370
        k(   29) = (   0.4166667   0.4166667   0.0000000), wk =   0.0370370
        k(   30) = (   0.4166667   0.4166667   0.1666667), wk =   0.0740741
        k(   31) = (   0.4166667   0.4166667   0.3333333), wk =   0.0740741
        k(   32) = (   0.4166667   0.4166667  -0.5000000), wk =   0.0370370
        k(   33) = (   0.4166667  -0.6250000   0.0000000), wk =   0.0370370
        k(   34) = (   0.4166667  -0.6250000   0.1666667), wk =   0.0740741
        k(   35) = (   0.4166667  -0.6250000   0.3333333), wk =   0.0740741
        k(   36) = (   0.4166667  -0.6250000  -0.5000000), wk =   0.0370370
        k(   37) = (  -0.6250000  -0.6250000   0.0000000), wk =   0.0092593
        k(   38) = (  -0.6250000  -0.6250000   0.1666667), wk =   0.0185185
        k(   39) = (  -0.6250000  -0.6250000   0.3333333), wk =   0.0185185
        k(   40) = (  -0.6250000  -0.6250000  -0.5000000), wk =   0.0092593

     Dense  grid:    13451 G-vectors     FFT dimensions: (  27,  27,  36)

     Estimated max dynamical RAM per process >      32.56 MB

     Initial potential from superposition of free atoms

     starting charge      21.9992, renormalised to      22.0000
     Starting wfcs are   14 randomized atomic wfcs +    1 random wfcs

     total cpu time spent up to now is        1.6 secs

     Self-consistent Calculation

     iteration #  1     ecut=   100.00 Ry     beta= 0.70
     Davidson diagonalization with overlap
     ethr =  1.00E-02,  avg # of iterations =  3.7

     Threshold (ethr) on eigenvalues was too large:
     Diagonalizing with lowered threshold

     Davidson diagonalization with overlap
     ethr =  1.26E-04,  avg # of iterations =  2.3
     Minimization algorithm failed to find Fermi energy: reverting to bisection
     Possible cause: smearing is larger than the electronic band-gap.

     total cpu time spent up to now is        4.0 secs

     total energy              =    -343.82448846 Ry
     estimated scf accuracy    <       0.02668337 Ry

     iteration #  2     ecut=   100.00 Ry     beta= 0.70
     Davidson diagonalization with overlap
     ethr =  1.21E-04,  avg # of iterations =  2.0

     total cpu time spent up to now is        5.0 secs

     total energy              =    -343.82085080 Ry
     estimated scf accuracy    <       0.03593789 Ry

     iteration #  3     ecut=   100.00 Ry     beta= 0.70
     Davidson diagonalization with overlap
     ethr =  1.21E-04,  avg # of iterations =  2.0
     Minimization algorithm failed to find Fermi energy: reverting to bisection
     Possible cause: smearing is larger than the electronic band-gap.

     total cpu time spent up to now is        6.0 secs

     total energy              =    -343.82973170 Ry
     estimated scf accuracy    <       0.00610643 Ry

     iteration #  4     ecut=   100.00 Ry     beta= 0.70
     Davidson diagonalization with overlap
     ethr =  2.78E-05,  avg # of iterations =  1.5

     total cpu time spent up to now is        6.9 secs

     total energy              =    -343.83062690 Ry
     estimated scf accuracy    <       0.00002415 Ry

     iteration #  5     ecut=   100.00 Ry     beta= 0.70
     Davidson diagonalization with overlap
     ethr =  1.10E-07,  avg # of iterations =  3.9

     total cpu time spent up to now is        8.1 secs

     total energy              =    -343.83064311 Ry
     estimated scf accuracy    <       0.00000645 Ry

     iteration #  6     ecut=   100.00 Ry     beta= 0.70
     Davidson diagonalization with overlap
     ethr =  2.93E-08,  avg # of iterations =  1.8

     total cpu time spent up to now is        9.0 secs

     End of self-consistent calculation

          k = 0.0000 0.0000 0.0000 (  1673 PWs)   bands (ev):

   -78.3525 -38.9068 -38.6249 -38.6249   8.4855  19.2436  20.0017  23.2963
    23.2963  24.3034  24.9137  32.9627  34.7229  34.7229  35.0458

          k = 0.0000 0.0000 0.1667 (  1689 PWs)   bands (ev):

   -78.3519 -38.9164 -38.6245 -38.6245   8.9997  18.4692  20.1201  23.1261
    23.1261  23.9438  24.3165  34.6168  35.0811  35.4198  35.4198

          k = 0.0000 0.0000 0.3333 (  1689 PWs)   bands (ev):

   -78.3508 -38.9356 -38.6236 -38.6236  10.4448  16.1874  20.3708  22.8115
    22.8115  23.2598  24.3427  33.7749  37.2873  37.2873  38.5787

          k = 0.0000 0.0000-0.5000 (  1674 PWs)   bands (ev):

   -78.3502 -38.9452 -38.6231 -38.6231  11.9149  14.2553  20.5040  22.6652
    22.6652  23.1828  24.3559  33.3602  39.4982  39.4982  40.5990

          k = 0.0000 0.2083 0.0000 (  1682 PWs)   bands (ev):

   -78.3428 -38.8980 -38.7079 -38.6178   9.2879  19.5921  20.0883  21.8460
    23.3851  23.8406  26.8543  29.4263  32.9488  35.6581  39.2196

          k = 0.0000 0.2083 0.1667 (  1675 PWs)   bands (ev):

   -78.3422 -38.9073 -38.7072 -38.6173   9.7812  18.9084  20.1945  21.7414
    23.2187  23.8595  25.3781  29.9710  35.0497  36.3219  39.0694

          k = 0.0000 0.2083 0.3333 (  1685 PWs)   bands (ev):

   -78.3411 -38.9258 -38.7059 -38.6164  11.1498  16.8083  20.5398  21.7762
    22.9130  23.8267  23.8927  30.9998  36.4773  38.0675  39.2949

          k = 0.0000 0.2083-0.5000 (  1682 PWs)   bands (ev):

   -78.3405 -38.9350 -38.7052 -38.6159  12.4603  15.0899  20.7734  21.8202
    22.7705  23.2925  23.9085  31.5946  36.1911  38.8449  39.8143

          k = 0.0000 0.4167 0.0000 (  1690 PWs)   bands (ev):

   -78.3233 -38.8805 -38.8723 -38.6036  11.5834  18.6044  20.4795  20.5573
    23.0370  23.5664  26.3645  29.8063  32.5275  38.0153  38.6474

          k = 0.0000 0.4167 0.1667 (  1675 PWs)   bands (ev):

   -78.3227 -38.8890 -38.8712 -38.6030  12.0075  18.7268  19.7358  20.9851
    23.0538  23.4154  26.0284  28.1478  33.9218  37.7554  38.5925

          k = 0.0000 0.4167 0.3333 (  1676 PWs)   bands (ev):

   -78.3217 -38.9060 -38.8689 -38.6019  13.1083  18.1819  19.4814  21.1570
    23.0784  23.1402  24.3200  28.3206  32.2799  39.7290  39.9372

          k = 0.0000 0.4167-0.5000 (  1680 PWs)   bands (ev):

   -78.3212 -38.9144 -38.8678 -38.6014  13.9561  17.3258  19.7631  21.0894
    22.9878  23.1132  23.5392  29.1166  30.8295  40.7086  40.8251

          k = 0.0000-0.6250 0.0000 (  1682 PWs)   bands (ev):

   -78.3135 -38.9538 -38.8717 -38.5964  14.8135  15.2579  19.9846  20.9707
    22.6794  23.6591  26.1486  32.1638  32.3220  35.2982  42.0278

          k = 0.0000-0.6250 0.1667 (  1694 PWs)   bands (ev):

   -78.3130 -38.9524 -38.8798 -38.5959  15.2878  15.3297  19.9881  20.9516
    22.6979  23.5117  25.7730  30.5981  30.6587  37.4236  42.2473

          k = 0.0000-0.6250 0.3333 (  1696 PWs)   bands (ev):

   -78.3120 -38.9497 -38.8960 -38.5947  15.3361  16.7442  20.0430  20.6442
    22.7352  23.2326  24.4982  28.8449  28.9184  40.7501  42.1308

          k = 0.0000-0.6250-0.5000 (  1672 PWs)   bands (ev):

   -78.3115 -38.9484 -38.9042 -38.5941  15.3540  18.0947  19.8461  20.0981
    22.7541  23.1000  23.6811  28.1621  28.4903  42.0668  42.8899

          k = 0.2083 0.2083 0.0000 (  1672 PWs)   bands (ev):

   -78.3331 -38.8893 -38.7029 -38.6968  10.0701  19.8536  20.3050  21.6326
    22.7178  23.3098  28.3244  28.9112  31.6310  34.2390  43.3595

          k = 0.2083 0.2083 0.1667 (  1672 PWs)   bands (ev):

   -78.3326 -38.8982 -38.7021 -38.6963  10.5414  19.2476  20.4180  21.6546
    22.3981  23.3311  26.5257  29.4645  32.5077  36.6934  40.8411

          k = 0.2083 0.2083 0.3333 (  1680 PWs)   bands (ev):

   -78.3315 -38.9161 -38.7005 -38.6952  11.8312  17.3702  20.7241  21.7637
    22.1561  23.3716  24.5501  30.6609  33.8119  37.9978  39.3730

          k = 0.2083 0.2083-0.5000 (  1684 PWs)   bands (ev):

   -78.3310 -38.9250 -38.6997 -38.6946  12.9993  15.8593  21.1265  21.2277
    22.8699  23.3176  23.5223  31.4053  34.9229  36.7126  37.5852

          k = 0.2083 0.4167 0.0000 (  1692 PWs)   bands (ev):

   -78.3138 -38.8717 -38.8625 -38.6837  12.3001  18.9374  20.6800  20.8185
    22.6609  22.6967  26.4030  31.0902  32.2052  34.9275  39.0572

          k = 0.2083 0.4167 0.1667 (  1686 PWs)   bands (ev):

   -78.3133 -38.8801 -38.8615 -38.6831  12.6980  19.1017  19.8022  21.3583
    22.4139  22.8406  26.5828  28.7438  33.2393  35.8394  38.0409

          k = 0.2083 0.4167 0.3333 (  1683 PWs)   bands (ev):

   -78.3123 -38.8968 -38.8594 -38.6818  13.7149  18.5702  19.4415  21.5666
    22.3919  23.0448  25.2426  28.4518  33.0560  34.3007  40.4638

          k = 0.2083 0.4167-0.5000 (  1676 PWs)   bands (ev):

   -78.3117 -38.9051 -38.8584 -38.6812  14.4722  17.7749  19.5738  21.4630
    23.1125  23.2361  23.6678  29.3810  31.4122  34.8363  39.4582

          k = 0.2083-0.6250 0.0000 (  1704 PWs)   bands (ev):

   -78.3041 -38.9431 -38.8630 -38.6757  15.5852  15.6279  20.2267  21.4409
    22.1187  22.8189  26.0459  32.7074  33.9974  35.2498  36.1978

          k = 0.2083-0.6250 0.1667 (  1692 PWs)   bands (ev):

   -78.3036 -38.9418 -38.8710 -38.6751  15.6967  16.0471  19.8572  21.4871
    22.6277  22.6416  25.9244  31.2797  31.8050  35.4009  36.6739

          k = 0.2083-0.6250 0.3333 (  1674 PWs)   bands (ev):

   -78.3026 -38.9394 -38.8871 -38.6738  15.8204  17.2220  19.4144  21.2631
    22.6580  23.5165  25.1410  29.1907  29.2462  36.0456  37.6830

          k = 0.2083-0.6250-0.5000 (  1672 PWs)   bands (ev):

   -78.3021 -38.9382 -38.8951 -38.6732  15.8729  18.0865  19.2708  20.8317
    23.4555  23.7809  23.9893  28.2372  28.5083  36.5127  38.2460

          k = 0.4167 0.4167 0.0000 (  1692 PWs)   bands (ev):

   -78.2947 -38.8543 -38.8457 -38.8397  14.2764  19.1473  20.8095  20.9807
    21.5936  22.5375  25.9179  30.4940  33.4357  34.0570  38.1417

          k = 0.4167 0.4167 0.1667 (  1690 PWs)   bands (ev):

   -78.2942 -38.8623 -38.8448 -38.8390  14.5868  19.1357  19.9865  20.9886
    22.3272  22.8346  26.4900  29.8517  31.2701  34.7474  37.9154

          k = 0.4167 0.4167 0.3333 (  1682 PWs)   bands (ev):

   -78.2933 -38.8783 -38.8429 -38.8376  15.3323  18.6582  19.1900  21.9754
    22.8848  23.2481  26.9055  28.1655  30.5845  34.0953  35.4156

          k = 0.4167 0.4167-0.5000 (  1676 PWs)   bands (ev):

   -78.2928 -38.8863 -38.8419 -38.8369  15.8318  18.2362  18.9011  23.0419
    23.4118  24.0525  24.0819  30.1883  30.3741  31.4128  35.3322

          k = 0.4167-0.6250 0.0000 (  1690 PWs)   bands (ev):

   -78.2852 -38.9215 -38.8455 -38.8328  16.4511  17.7094  20.7574  21.2233
    21.5624  22.0999  25.6293  31.4537  31.8125  35.1101  37.7312

          k = 0.4167-0.6250 0.1667 (  1692 PWs)   bands (ev):

   -78.2847 -38.9206 -38.8534 -38.8321  16.6162  17.8872  19.4919  21.3800
    22.6419  22.8649  25.7870  31.2142  31.7810  32.9242  34.7161

          k = 0.4167-0.6250 0.3333 (  1692 PWs)   bands (ev):

   -78.2837 -38.9188 -38.8691 -38.8307  16.9601  18.0291  18.5635  22.2493
    23.1523  24.8626  25.8768  29.5043  30.0006  31.8610  32.8933

          k = 0.4167-0.6250-0.5000 (  1692 PWs)   bands (ev):

   -78.2832 -38.9179 -38.8770 -38.8299  17.1298  18.0067  18.2646  23.3121
    24.0186  24.7182  26.2466  28.3651  28.3846  31.8287  32.7501

          k =-0.6250-0.6250 0.0000 (  1692 PWs)   bands (ev):

   -78.2757 -38.9107 -38.9107 -38.8368  16.9109  20.2500  20.8735  20.8735
    21.0514  21.0514  25.3864  29.8890  30.6895  35.0030  41.0284

          k =-0.6250-0.6250 0.1667 (  1684 PWs)   bands (ev):

   -78.2753 -38.9100 -38.9100 -38.8446  17.1270  19.3227  19.3227  20.8355
    23.1131  23.1131  25.3890  29.3648  30.2373  34.2407  36.4476

          k =-0.6250-0.6250 0.3333 (  1704 PWs)   bands (ev):

   -78.2743 -38.9084 -38.9084 -38.8601  17.6075  18.2924  18.2924  22.4453
    25.3941  25.6626  25.6626  27.7869  29.0917  32.5064  32.5064

          k =-0.6250-0.6250-0.5000 (  1704 PWs)   bands (ev):

   -78.2738 -38.9077 -38.9077 -38.8679  17.8790  17.9398  17.9398  24.0304
    25.3967  26.1672  27.8549  27.8549  28.4461  29.8665  29.8665

     the Fermi energy is    27.9143 ev

!    total energy              =    -343.83064383 Ry
     estimated scf accuracy    <       0.00000014 Ry
     smearing contrib. (-TS)   =       0.00052965 Ry
     internal energy E=F+TS    =    -343.83117348 Ry

     The total energy is F=E-TS. E is the sum of the following terms:
     one-electron contribution =    -173.74961091 Ry
     hartree contribution      =     107.67590555 Ry
     xc contribution           =     -46.96111331 Ry
     ewald contribution        =    -230.79635480 Ry

     convergence has been achieved in   6 iterations

     Forces acting on atoms (cartesian axes, Ry/au):

     atom    1 type  1   force =     0.00000000    0.00000000    0.00000000
     atom    2 type  2   force =     0.00000000    0.00000000    0.00000000

     Total force =     0.000000     Total SCF correction =     0.000000


     Computing stress (Cartesian axis) and pressure

          total   stress  (Ry/bohr**3)                   (kbar)     P=     2087.27
   0.01416692   0.00000000   0.00000000         2084.03        0.00        0.00
   0.00000000   0.01416692   0.00000000            0.00     2084.03        0.00
   0.00000000   0.00000000   0.01423308            0.00        0.00     2093.76


     BFGS Geometry Optimization
     Energy error            =      4.4E-01 Ry
     Gradient error          =      0.0E+00 Ry/Bohr
     Cell gradient error     =      2.1E+03 kbar

     number of scf cycles    =   1
     number of bfgs steps    =   0

     enthalpy           new  =    -343.8306438254 Ry

     new trust radius        =       0.5000000000 bohr
     new conv_thr            =       0.0000010000 Ry

     new unit-cell volume =    124.72948 a.u.^3 (    18.48300 Ang^3 )
     density =      7.79634 g/cm^3

CELL_PARAMETERS (alat=  5.38176635)
   0.800000000   0.000000000   0.000000000
   0.000000000   0.800000000   0.000000000
   0.000000000   0.000000000   1.250301103

ATOMIC_POSITIONS (crystal)
Si               0.0000000000        0.0000000000        0.0000000000
Ni               0.5000000000        0.5000000000        0.5000000000



     Writing config-only to output data dir ./tmp/SiNi-vc-relax.save/ :
     XML data file
     NEW-OLD atomic charge density approx. for the potential
     New effective cutoffs (rho, wfc):  397.49   99.98

     negative rho (up, down):  1.276E-05 0.000E+00

     total cpu time spent up to now is        9.8 secs

     Self-consistent Calculation

     iteration #  1     ecut=   100.00 Ry     beta= 0.70
     Davidson diagonalization with overlap
     ethr =  1.00E-06,  avg # of iterations =  9.9

     total cpu time spent up to now is       13.0 secs

     total energy              =    -343.96378153 Ry
     estimated scf accuracy    <       0.03035506 Ry

     iteration #  2     ecut=   100.00 Ry     beta= 0.70
     Davidson diagonalization with overlap
     ethr =  1.38E-04,  avg # of iterations =  2.6

     total cpu time spent up to now is       14.2 secs

     total energy              =    -343.94076279 Ry
     estimated scf accuracy    <       0.31382772 Ry

     iteration #  3     ecut=   100.00 Ry     beta= 0.70
     Davidson diagonalization with overlap
     ethr =  1.38E-04,  avg # of iterations =  2.5

     total cpu time spent up to now is       15.3 secs

     total energy              =    -343.98228548 Ry
     estimated scf accuracy    <       0.00036746 Ry

     iteration #  4     ecut=   100.00 Ry     beta= 0.70
     Davidson diagonalization with overlap
     ethr =  1.67E-06,  avg # of iterations =  2.7

     total cpu time spent up to now is       16.5 secs

     total energy              =    -343.98238492 Ry
     estimated scf accuracy    <       0.00008323 Ry

     iteration #  5     ecut=   100.00 Ry     beta= 0.70
     Davidson diagonalization with overlap
     ethr =  3.78E-07,  avg # of iterations =  1.3

     total cpu time spent up to now is       17.4 secs

     total energy              =    -343.98238822 Ry
     estimated scf accuracy    <       0.00000965 Ry

     iteration #  6     ecut=   100.00 Ry     beta= 0.70
     Davidson diagonalization with overlap
     ethr =  4.38E-08,  avg # of iterations =  2.0

     total cpu time spent up to now is       18.5 secs

     End of self-consistent calculation

          k = 0.0000 0.0000 0.0000 (  1673 PWs)   bands (ev):

   -83.2565 -43.7345 -43.4470 -43.4470   4.6800  14.8226  15.6801  16.0208
    18.8360  18.8360  19.8400  22.8914  29.2424  30.9290  30.9290

          k = 0.0000 0.0000 0.1333 (  1689 PWs)   bands (ev):

   -83.2560 -43.7283 -43.4470 -43.4470   4.9586  13.1307  16.0455  16.5064
    18.8052  18.8052  19.8412  24.2449  29.0917  31.2803  31.2803

          k = 0.0000 0.0000 0.2666 (  1689 PWs)   bands (ev):

   -83.2558 -43.7270 -43.4470 -43.4470   5.6818  11.0421  16.0968  16.9374
    18.7364  18.7364  19.8438  27.2181  28.8000  32.1826  32.1826

          k = 0.0000 0.0000-0.3999 (  1674 PWs)   bands (ev):

   -83.2551 -43.7178 -43.4471 -43.4471   6.2185  10.0084  16.1226  17.0791
    18.7024  18.7024  19.8451  28.6583  29.3836  32.8597  32.8597

          k = 0.0000 0.2083 0.0000 (  1682 PWs)   bands (ev):

   -83.2474 -43.7262 -43.5243 -43.4405   5.4658  15.3456  15.4807  16.2365
    18.9085  19.4564  19.4865  23.0781  24.2276  31.6808  33.5749

          k = 0.0000 0.2083 0.1333 (  1675 PWs)   bands (ev):

   -83.2468 -43.7197 -43.5237 -43.4406   5.7310  13.6797  16.2681  16.4321
    18.8786  18.9424  19.4887  24.4041  24.7864  31.9990  33.0657

          k = 0.0000 0.2083 0.2666 (  1685 PWs)   bands (ev):

   -83.2468 -43.7198 -43.5242 -43.4408   6.4106  11.7769  16.3546  16.9874
    18.2642  18.8137  19.4928  24.9232  27.9844  31.9628  32.7905

          k = 0.0000 0.2083-0.3999 (  1682 PWs)   bands (ev):

   -83.2462 -43.7121 -43.5238 -43.4409   6.8998  10.8304  16.3971  17.3254
    17.8788  18.7831  19.4950  25.1961  30.2341  31.3882  33.3398

          k = 0.0000 0.4167 0.0000 (  1690 PWs)   bands (ev):

   -83.2288 -43.7066 -43.6770 -43.4275   7.7530  15.0986  15.2509  16.2563
    18.8438  19.0564  20.7086  21.2762  23.7785  29.5793  33.7553

          k = 0.0000 0.4167 0.1333 (  1675 PWs)   bands (ev):

   -83.2286 -43.7053 -43.6767 -43.4274   7.9756  14.5530  15.4208  16.4152
    18.8464  19.0308  19.5222  21.1277  25.7965  28.4509  33.9915

          k = 0.0000 0.4167 0.2666 (  1676 PWs)   bands (ev):

   -83.2281 -43.6990 -43.6763 -43.4275   8.5172  13.6266  15.4980  16.6540
    18.2457  18.8514  18.9777  21.3769  26.1854  30.0000  34.5253

          k = 0.0000 0.4167-0.3999 (  1680 PWs)   bands (ev):

   -83.2277 -43.6942 -43.6759 -43.4277   8.8698  13.0830  15.5159  16.7545
    17.8624  18.8546  18.9497  21.5504  25.6091  32.5327  34.8372

          k = 0.0000-0.6250 0.0000 (  1682 PWs)   bands (ev):

   -83.2190 -43.7517 -43.6928 -43.4205  11.0936  11.5633  14.9170  16.6008
    18.5485  19.1358  20.8307  23.3510  24.6352  26.1736  30.4785

          k = 0.0000-0.6250 0.1333 (  1694 PWs)   bands (ev):

   -83.2199 -43.7534 -43.7012 -43.4215  11.3824  11.4970  15.1446  16.5283
    18.5500  19.1027  19.8861  22.8515  23.2252  28.4424  32.2136

          k = 0.0000-0.6250 0.2666 (  1696 PWs)   bands (ev):

   -83.2191 -43.7523 -43.6931 -43.4216  11.3777  12.1378  15.6807  16.1827
    18.3814  18.5552  19.0550  21.1080  23.1475  31.7215  36.0691

          k = 0.0000-0.6250-0.3999 (  1672 PWs)   bands (ev):

   -83.2184 -43.7515 -43.6855 -43.4210  11.3232  12.7116  15.6879  16.0099
    17.8642  18.5579  19.0360  20.3827  23.1372  34.5340  36.2460

          k = 0.2083 0.2083 0.0000 (  1672 PWs)   bands (ev):

   -83.2381 -43.7153 -43.5190 -43.5148   6.2392  15.5205  15.7945  16.5251
    18.2621  19.0729  20.5832  23.4326  23.5532  27.4562  35.8660

          k = 0.2083 0.2083 0.1333 (  1672 PWs)   bands (ev):

   -83.2376 -43.7115 -43.5189 -43.5140   6.4912  14.1639  16.5729  16.5752
    18.1260  19.0671  19.7450  23.8395  25.2858  27.7493  34.3427

          k = 0.2083 0.2083 0.2666 (  1680 PWs)   bands (ev):

   -83.2374 -43.7087 -43.5190 -43.5144   7.1282  12.4675  16.6895  17.1743
    17.8357  18.8074  19.1450  24.4505  27.4694  29.6390  32.4892

          k = 0.2083 0.2083-0.3999 (  1684 PWs)   bands (ev):

   -83.2368 -43.6998 -43.5188 -43.5148   7.5744  11.6108  16.7672  17.5371
    17.6787  18.4182  19.1226  24.7893  27.9156  31.7397  32.6831

          k = 0.2083 0.4167 0.0000 (  1692 PWs)   bands (ev):

   -83.2197 -43.6976 -43.6683 -43.5027   8.4867  15.4058  15.5650  16.7838
    18.0998  18.5057  20.7725  22.5052  24.5014  28.2400  30.0901

          k = 0.2083 0.4167 0.1333 (  1686 PWs)   bands (ev):

   -83.2197 -43.6976 -43.6684 -43.5023   8.6954  14.9717  15.6238  16.9721
    17.9687  18.6008  20.4834  21.3631  26.5894  28.4956  28.8890

          k = 0.2083 0.4167 0.2666 (  1683 PWs)   bands (ev):

   -83.2192 -43.6928 -43.6680 -43.5024   9.1971  14.1350  15.7152  17.1942
    17.8072  18.7575  19.2412  21.6022  26.8938  28.0609  31.1982

          k = 0.2083 0.4167-0.3999 (  1676 PWs)   bands (ev):

   -83.2188 -43.6868 -43.6677 -43.5026   9.5169  13.6575  15.7520  17.2313
    17.8850  18.6615  18.8596  21.8697  26.1760  28.2776  34.3676

          k = 0.2083-0.6250 0.0000 (  1704 PWs)   bands (ev):

   -83.2105 -43.7429 -43.6888 -43.4957  11.8295  12.0895  15.2729  17.2390
    17.8934  18.2000  20.7736  24.9570  25.7972  26.2347  30.6127

          k = 0.2083-0.6250 0.1333 (  1692 PWs)   bands (ev):

   -83.2108 -43.7441 -43.6912 -43.4953  12.0501  12.0867  15.3238  17.2030
    18.1162  18.1185  20.3765  23.6597  24.1071  28.3288  31.3949

          k = 0.2083-0.6250 0.2666 (  1674 PWs)   bands (ev):

   -83.2100 -43.7430 -43.6840 -43.4953  11.9738  12.7288  15.4439  16.9547
    18.0234  18.7569  19.4196  21.6839  23.3694  29.7733  31.7675

          k = 0.2083-0.6250-0.3999 (  1672 PWs)   bands (ev):

   -83.2097 -43.7425 -43.6791 -43.4957  11.9364  13.1677  15.5063  16.6252
    18.0830  18.8945  19.4614  20.5202  23.2058  30.1884  31.9503

          k = 0.4167 0.4167 0.0000 (  1692 PWs)   bands (ev):

   -83.2020 -43.6849 -43.6536 -43.6495  10.5844  15.6797  15.9904  17.1207
    17.2844  18.5375  20.4960  24.4967  24.5207  26.6091  30.3227

          k = 0.4167 0.4167 0.1333 (  1690 PWs)   bands (ev):

   -83.2018 -43.6826 -43.6542 -43.6490  10.7462  15.3250  16.3746  16.3826
    18.0296  18.6782  20.8274  22.5402  24.4140  28.2651  30.2564

          k = 0.4167 0.4167 0.2666 (  1682 PWs)   bands (ev):

   -83.2011 -43.6759 -43.6529 -43.6486  11.1183  14.8234  15.8114  17.1818
    18.5057  18.9281  20.3478  21.7865  23.9536  27.7253  29.3263

          k = 0.4167 0.4167-0.3999 (  1676 PWs)   bands (ev):

   -83.2009 -43.6734 -43.6529 -43.6486  11.3396  14.5662  15.6149  18.1629
    18.6356  18.6628  19.2595  22.5375  23.7115  26.4873  29.7078

          k = 0.4167-0.6250 0.0000 (  1690 PWs)   bands (ev):

   -83.1927 -43.7248 -43.6736 -43.6428  13.3272  13.9165  16.0883  17.0175
    17.0744  18.3526  20.5652  25.8624  25.8712  26.4398  28.2989

          k = 0.4167-0.6250 0.1333 (  1692 PWs)   bands (ev):

   -83.1927 -43.7251 -43.6744 -43.6428  13.3806  14.0046  15.4937  17.0775
    17.9973  18.5441  20.5648  25.0442  25.2168  25.7658  26.8347

          k = 0.4167-0.6250 0.2666 (  1692 PWs)   bands (ev):

   -83.1921 -43.7248 -43.6679 -43.6423  13.4777  14.1345  14.9611  17.6018
    18.8365  19.4956  20.1858  23.0802  23.7565  25.3872  26.1063

          k = 0.4167-0.6250-0.3999 (  1692 PWs)   bands (ev):

   -83.1921 -43.7243 -43.6686 -43.6422  13.5173  14.1722  14.7952  18.4803
    19.0094  19.1734  20.9039  21.5288  23.3590  25.1782  25.8554

          k =-0.6250-0.6250 0.0000 (  1692 PWs)   bands (ev):

   -83.1835 -43.7156 -43.7156 -43.6631  14.0268  16.5663  16.5663  16.7142
    16.9925  16.9925  20.6571  23.9051  23.9797  26.6413  31.5229

          k =-0.6250-0.6250 0.1333 (  1684 PWs)   bands (ev):

   -83.1835 -43.7155 -43.7155 -43.6637  14.1359  15.6075  15.6075  17.0408
    18.3595  18.3595  20.6570  23.3177  23.3683  26.9146  28.3849

          k =-0.6250-0.6250 0.2666 (  1704 PWs)   bands (ev):

   -83.1839 -43.7164 -43.7164 -43.6678  14.3726  14.9041  14.9041  17.9283
    20.2591  20.2591  20.6572  21.9210  22.3850  25.4500  25.4500

          k =-0.6250-0.6250-0.3999 (  1704 PWs)   bands (ev):

   -83.1831 -43.7152 -43.7152 -43.6610  14.5030  14.6694  14.6694  18.7261
    20.6594  20.8881  21.9431  21.9431  21.9497  23.4356  23.4356

     the Fermi energy is    20.9684 ev

!    total energy              =    -343.98239020 Ry
     estimated scf accuracy    <       0.00000013 Ry
     smearing contrib. (-TS)   =       0.00043372 Ry
     internal energy E=F+TS    =    -343.98282392 Ry

     The total energy is F=E-TS. E is the sum of the following terms:
     one-electron contribution =    -212.69651200 Ry
     hartree contribution      =     123.09878649 Ry
     xc contribution           =     -46.50374143 Ry
     ewald contribution        =    -207.88135697 Ry

     convergence has been achieved in   6 iterations

     Forces acting on atoms (cartesian axes, Ry/au):

     atom    1 type  1   force =     0.00000000    0.00000000    0.00000000
     atom    2 type  2   force =     0.00000000    0.00000000    0.00000000

     Total force =     0.000000     Total SCF correction =     0.000000


     Computing stress (Cartesian axis) and pressure

          total   stress  (Ry/bohr**3)                   (kbar)     P=      438.73
   0.00555251   0.00000000   0.00000000          816.80        0.00        0.00
   0.00000000   0.00555251   0.00000000            0.00      816.80        0.00
   0.00000000   0.00000000  -0.00215771            0.00        0.00     -317.41

     Energy error            =      1.5E-01 Ry
     Gradient error          =      0.0E+00 Ry/Bohr
     Cell gradient error     =      3.2E+02 kbar

     number of scf cycles    =   2
     number of bfgs steps    =   1

     enthalpy           old  =    -343.8306438254 Ry
     enthalpy           new  =    -343.9823901962 Ry

     CASE: enthalpy          _new < enthalpy          _old

     new trust radius        =       0.0588647399 bohr
     new conv_thr            =       0.0000000100 Ry

     new unit-cell volume =    121.44240 a.u.^3 (    17.99591 Ang^3 )
     density =      8.00736 g/cm^3

CELL_PARAMETERS (alat=  5.38176635)
   0.800000000   0.000000000   0.000000000
   0.000000000   0.800000000   0.000000000
   0.000000000   0.000000000   1.217351112

ATOMIC_POSITIONS (crystal)
Si               0.0000000000        0.0000000000        0.0000000000
Ni               0.5000000000        0.5000000000        0.5000000000



     Writing config-only to output data dir ./tmp/SiNi-vc-relax.save/ :
     XML data file
     NEW-OLD atomic charge density approx. for the potential
     New effective cutoffs (rho, wfc):  397.68   99.98

     total cpu time spent up to now is       19.3 secs

     Self-consistent Calculation

     iteration #  1     ecut=   100.00 Ry     beta= 0.70
     Davidson diagonalization with overlap
     ethr =  1.00E-06,  avg # of iterations =  6.2

     total cpu time spent up to now is       21.4 secs

     total energy              =    -343.98513104 Ry
     estimated scf accuracy    <       0.00026167 Ry

     iteration #  2     ecut=   100.00 Ry     beta= 0.70
     Davidson diagonalization with overlap
     ethr =  1.19E-06,  avg # of iterations =  2.1

     total cpu time spent up to now is       22.5 secs

     total energy              =    -343.98501956 Ry
     estimated scf accuracy    <       0.00119650 Ry

     iteration #  3     ecut=   100.00 Ry     beta= 0.70
     Davidson diagonalization with overlap
     ethr =  1.19E-06,  avg # of iterations =  2.1

     total cpu time spent up to now is       23.5 secs

     total energy              =    -343.98522339 Ry
     estimated scf accuracy    <       0.00003020 Ry

     iteration #  4     ecut=   100.00 Ry     beta= 0.70
     Davidson diagonalization with overlap
     ethr =  1.37E-07,  avg # of iterations =  1.1

     total cpu time spent up to now is       24.4 secs

     total energy              =    -343.98522691 Ry
     estimated scf accuracy    <       0.00000035 Ry

     iteration #  5     ecut=   100.00 Ry     beta= 0.70
     Davidson diagonalization with overlap
     ethr =  1.61E-09,  avg # of iterations =  2.5

     total cpu time spent up to now is       25.4 secs

     End of self-consistent calculation

          k = 0.0000 0.0000 0.0000 (  1673 PWs)   bands (ev):

   -82.6876 -43.1992 -42.8844 -42.8844   5.0967  15.3390  16.5052  16.5684
    19.3210  19.3210  20.3674  24.0107  29.8561  31.3539  31.3539

          k = 0.0000 0.0000 0.1369 (  1689 PWs)   bands (ev):

   -82.6873 -43.1960 -42.8844 -42.8844   5.3995  13.7596  16.5364  17.1927
    19.2799  19.2799  20.3690  25.4426  29.6800  31.7411  31.7411

          k = 0.0000 0.0000 0.2738 (  1689 PWs)   bands (ev):

   -82.6871 -43.1963 -42.8844 -42.8844   6.1957  11.5895  16.6006  17.5614
    19.1956  19.1956  20.3724  28.5119  29.3395  32.7494  32.7494

          k = 0.0000 0.0000-0.4107 (  1674 PWs)   bands (ev):

   -82.6866 -43.1914 -42.8844 -42.8844   6.8063  10.4698  16.6332  17.6805
    19.1543  19.1543  20.3742  29.1744  30.6419  33.5424  33.5424

          k = 0.0000 0.2083 0.0000 (  1682 PWs)   bands (ev):

   -82.6784 -43.1908 -42.9622 -42.8779   5.8839  15.8398  16.2130  16.7006
    19.3959  20.0042  20.1041  24.1539  24.8406  32.1238  34.1831

          k = 0.0000 0.2083 0.1369 (  1675 PWs)   bands (ev):

   -82.6780 -43.1874 -42.9618 -42.8779   6.1725  14.2913  16.7506  16.9946
    19.3568  19.5327  20.0071  25.0234  25.9488  32.4767  33.6837

          k = 0.0000 0.2083 0.2738 (  1685 PWs)   bands (ev):

   -82.6780 -43.1885 -42.9620 -42.8781   6.9210  12.3154  16.8542  17.5354
    18.7809  19.2772  20.0126  25.5818  29.2284  32.5552  33.3663

          k = 0.0000 0.2083-0.4107 (  1682 PWs)   bands (ev):

   -82.6776 -43.1844 -42.9618 -42.8781   7.4763  11.2936  16.9076  17.9100
    18.3208  19.2390  20.0153  25.8869  31.3530  31.9122  34.0071

          k = 0.0000 0.4167 0.0000 (  1690 PWs)   bands (ev):

   -82.6598 -43.1722 -43.1160 -42.8648   8.1715  15.6169  15.6598  16.7556
    19.3467  19.5486  21.3626  22.1039  24.8172  30.5043  34.2280

          k = 0.0000 0.4167 0.1369 (  1675 PWs)   bands (ev):

   -82.6597 -43.1719 -43.1157 -42.8647   8.4144  15.0714  15.8215  16.9264
    19.3499  19.5151  20.2280  21.8591  26.7961  29.3653  34.4946

          k = 0.0000 0.4167 0.2738 (  1676 PWs)   bands (ev):

   -82.6593 -43.1690 -43.1154 -42.8647   9.0110  14.1224  15.9185  17.1636
    18.8425  19.3563  19.4478  22.1541  26.8234  31.2000  35.1018

          k = 0.0000 0.4167-0.4107 (  1680 PWs)   bands (ev):

   -82.6590 -43.1665 -43.1151 -42.8649   9.4068  13.5459  15.9567  17.2582
    18.4051  19.3605  19.4130  22.3726  26.1753  33.5361  35.4617

          k = 0.0000-0.6250 0.0000 (  1682 PWs)   bands (ev):

   -82.6501 -43.1916 -43.1604 -42.8579  11.4956  11.9721  15.4233  17.1048
    19.0455  19.6285  21.4551  24.2270  25.5178  27.1240  31.6785

          k = 0.0000-0.6250 0.1369 (  1694 PWs)   bands (ev):

   -82.6507 -43.1926 -43.1661 -42.8585  11.8074  11.9114  15.6384  17.0371
    19.0482  19.5921  20.5645  23.7066  23.9467  29.4504  33.5409

          k = 0.0000-0.6250 0.2738 (  1696 PWs)   bands (ev):

   -82.6502 -43.1918 -43.1619 -42.8585  11.8002  12.6297  16.1372  16.6873
    19.0101  19.0547  19.5302  21.9457  23.7540  32.7974  37.6241

          k = 0.0000-0.6250-0.4107 (  1672 PWs)   bands (ev):

   -82.6497 -43.1912 -43.1577 -42.8581  11.7487  13.2702  16.1623  16.4387
    18.4438  19.0581  19.5025  21.2269  23.7152  35.4301  37.9579

          k = 0.2083 0.2083 0.0000 (  1672 PWs)   bands (ev):

   -82.6691 -43.1809 -42.9570 -42.9525   6.6581  16.1947  16.2591  16.9844
    18.7398  19.5792  21.3047  24.1352  24.5136  28.0539  36.7308

          k = 0.2083 0.2083 0.1369 (  1672 PWs)   bands (ev):

   -82.6688 -43.1791 -42.9570 -42.9521   6.9324  14.7557  17.0386  17.1042
    18.5838  19.5760  20.4048  24.4492  26.3784  28.4386  35.0485

          k = 0.2083 0.2083 0.2738 (  1680 PWs)   bands (ev):

   -82.6686 -43.1784 -42.9570 -42.9523   7.6343  12.9948  17.1759  17.7157
    18.2578  19.3637  19.6646  25.1230  28.2160  30.8889  33.0772

          k = 0.2083 0.2083-0.4107 (  1684 PWs)   bands (ev):

   -82.6682 -43.1735 -42.9568 -42.9525   8.1392  12.0734  17.2736  18.0749
    18.1069  18.9219  19.6316  25.5017  28.6478  32.2729  33.2335

          k = 0.2083 0.4167 0.0000 (  1692 PWs)   bands (ev):

   -82.6507 -43.1636 -43.1073 -42.9404   8.9035  15.9351  15.9546  17.2562
    18.5905  19.0045  21.4179  23.3527  25.5106  28.8770  30.9979

          k = 0.2083 0.4167 0.1369 (  1686 PWs)   bands (ev):

   -82.6506 -43.1640 -43.1073 -42.9401   9.1311  15.4931  16.0052  17.4645
    18.4525  19.1022  21.1782  22.1121  27.5117  29.2214  29.7752

          k = 0.2083 0.4167 0.2738 (  1683 PWs)   bands (ev):

   -82.6503 -43.1619 -43.1070 -42.9401   9.6835  14.6162  16.1147  17.6959
    18.3098  19.2601  19.8461  22.3641  27.5374  28.7322  32.4103

          k = 0.2083 0.4167-0.4107 (  1676 PWs)   bands (ev):

   -82.6500 -43.1588 -43.1067 -42.9402  10.0416  14.1081  16.1598  17.7214
    18.4497  19.1727  19.3546  22.6819  26.7442  28.9551  34.9503

          k = 0.2083-0.6250 0.0000 (  1704 PWs)   bands (ev):

   -82.6415 -43.1825 -43.1549 -42.9332  12.2344  12.4819  15.7707  17.7260
    18.4066  18.6953  21.3929  25.8514  26.6314  27.1652  31.6480

          k = 0.2083-0.6250 0.1369 (  1692 PWs)   bands (ev):

   -82.6416 -43.1832 -43.1568 -42.9330  12.4500  12.5120  15.7961  17.6959
    18.6094  18.6528  21.0213  24.4933  24.8621  29.1675  31.9865

          k = 0.2083-0.6250 0.2738 (  1674 PWs)   bands (ev):

   -82.6411 -43.1824 -43.1532 -42.9329  12.3855  13.2086  15.8708  17.4454
    18.5395  19.3235  20.0200  22.4791  23.9784  30.4668  32.3868

          k = 0.2083-0.6250-0.4107 (  1672 PWs)   bands (ev):

   -82.6409 -43.1821 -43.1507 -42.9331  12.3528  13.6908  15.9158  17.1074
    18.6479  19.4034  19.9836  21.3576  23.7781  30.8447  32.5979

          k = 0.4167 0.4167 0.0000 (  1692 PWs)   bands (ev):

   -82.6328 -43.1494 -43.0923 -43.0879  10.9897  16.0757  16.5044  17.5881
    17.6832  19.0053  21.1187  25.1830  25.4212  27.5897  31.0031

          k = 0.4167 0.4167 0.1369 (  1690 PWs)   bands (ev):

   -82.6327 -43.1485 -43.0926 -43.0876  11.1661  15.7605  16.7665  16.8583
    18.5021  19.1564  21.4727  23.3513  25.1107  29.1221  31.0537

          k = 0.4167 0.4167 0.2738 (  1682 PWs)   bands (ev):

   -82.6321 -43.1451 -43.0918 -43.0873  11.5744  15.2463  16.1724  17.6896
    19.0053  19.4246  21.0268  22.5117  24.6394  28.3731  30.0106

          k = 0.4167 0.4167-0.4107 (  1676 PWs)   bands (ev):

   -82.6320 -43.1440 -43.0917 -43.0873  11.8201  14.9736  15.9648  18.7454
    19.1427  19.2572  19.7371  23.3646  24.3907  27.0121  30.3422

          k = 0.4167-0.6250 0.0000 (  1690 PWs)   bands (ev):

   -82.6235 -43.1641 -43.1393 -43.0813  13.6776  14.3237  16.5642  17.4908
    17.5707  18.7818  21.1566  26.4842  26.5350  27.3015  29.2546

          k = 0.4167-0.6250 0.1369 (  1692 PWs)   bands (ev):

   -82.6235 -43.1642 -43.1401 -43.0813  13.7401  14.4191  15.9268  17.5390
    18.5513  19.0026  21.1743  25.8168  25.8681  26.4687  27.6251

          k = 0.4167-0.6250 0.2738 (  1692 PWs)   bands (ev):

   -82.6231 -43.1639 -43.1370 -43.0810  13.8543  14.5526  15.3613  18.0911
    19.3242  20.1260  20.8288  23.7856  24.3382  26.0640  26.8092

          k = 0.4167-0.6250-0.4107 (  1692 PWs)   bands (ev):

   -82.6230 -43.1636 -43.1377 -43.0809  13.9007  14.5873  15.1871  19.0374
    19.5048  19.7803  21.7178  22.0532  23.8953  25.8414  26.5591

          k =-0.6250-0.6250 0.0000 (  1692 PWs)   bands (ev):

   -82.6144 -43.1547 -43.1547 -43.1297  14.3636  17.0278  17.0278  17.0844
    17.4247  17.4247  21.2082  24.5832  24.7507  27.4309  32.5296

          k =-0.6250-0.6250 0.1369 (  1684 PWs)   bands (ev):

   -82.6143 -43.1546 -43.1546 -43.1304  14.4836  16.0016  16.0016  17.4351
    18.8783  18.8783  21.2084  23.9867  24.1096  27.6712  29.2259

          k =-0.6250-0.6250 0.2738 (  1704 PWs)   bands (ev):

   -82.6146 -43.1551 -43.1551 -43.1338  14.7454  15.2628  15.2628  18.3930
    20.8833  20.8833  21.2087  22.5365  23.0648  26.1530  26.1530

          k =-0.6250-0.6250-0.4107 (  1704 PWs)   bands (ev):

   -82.6140 -43.1544 -43.1544 -43.1298  14.8902  15.0145  15.0145  19.2624
    21.2101  21.4309  22.5982  22.7995  22.7995  23.8930  23.8930

     the Fermi energy is    21.6646 ev

!    total energy              =    -343.98522700 Ry
     estimated scf accuracy    <          9.4E-09 Ry
     smearing contrib. (-TS)   =       0.00109017 Ry
     internal energy E=F+TS    =    -343.98631716 Ry

     The total energy is F=E-TS. E is the sum of the following terms:
     one-electron contribution =    -207.69336380 Ry
     hartree contribution      =     121.05302739 Ry
     xc contribution           =     -46.55503411 Ry
     ewald contribution        =    -210.79094664 Ry

     convergence has been achieved in   5 iterations

     Forces acting on atoms (cartesian axes, Ry/au):

     atom    1 type  1   force =     0.00000000    0.00000000    0.00000000
     atom    2 type  2   force =     0.00000000    0.00000000    0.00000000

     Total force =     0.000000     Total SCF correction =     0.000000


     Computing stress (Cartesian axis) and pressure

          total   stress  (Ry/bohr**3)                   (kbar)     P=      633.80
   0.00628852   0.00000000   0.00000000          925.07        0.00        0.00
   0.00000000   0.00628852   0.00000000            0.00      925.07        0.00
   0.00000000   0.00000000   0.00034847            0.00        0.00       51.26

     Energy error            =      2.8E-03 Ry
     Gradient error          =      0.0E+00 Ry/Bohr
     Cell gradient error     =      5.1E+01 kbar

     number of scf cycles    =   3
     number of bfgs steps    =   2

     enthalpy           old  =    -343.9823901962 Ry
     enthalpy           new  =    -343.9852269970 Ry

     CASE: enthalpy          _new < enthalpy          _old

     new trust radius        =       0.0082948646 bohr
     new conv_thr            =       0.0000000100 Ry

     new unit-cell volume =    121.89945 a.u.^3 (    18.06364 Ang^3 )
     density =      7.97734 g/cm^3

CELL_PARAMETERS (alat=  5.38176635)
   0.800000000   0.000000000   0.000000000
   0.000000000   0.800000000   0.000000000
   0.000000000   0.000000000   1.221932637

ATOMIC_POSITIONS (crystal)
Si               0.0000000000        0.0000000000        0.0000000000
Ni               0.5000000000        0.5000000000        0.5000000000



     Writing config-only to output data dir ./tmp/SiNi-vc-relax.save/ :
     XML data file
     NEW-OLD atomic charge density approx. for the potential
     New effective cutoffs (rho, wfc):  397.66   99.98

     total cpu time spent up to now is       26.2 secs

     Self-consistent Calculation

     iteration #  1     ecut=   100.00 Ry     beta= 0.70
     Davidson diagonalization with overlap
     ethr =  1.00E-06,  avg # of iterations =  3.3

     Threshold (ethr) on eigenvalues was too large:
     Diagonalizing with lowered threshold

     Davidson diagonalization with overlap
     ethr =  2.87E-08,  avg # of iterations =  2.1

     total cpu time spent up to now is       28.7 secs

     total energy              =    -343.98531081 Ry
     estimated scf accuracy    <       0.00000742 Ry

     iteration #  2     ecut=   100.00 Ry     beta= 0.70
     Davidson diagonalization with overlap
     ethr =  3.37E-08,  avg # of iterations =  2.3

     total cpu time spent up to now is       29.8 secs

     total energy              =    -343.98530720 Ry
     estimated scf accuracy    <       0.00004671 Ry

     iteration #  3     ecut=   100.00 Ry     beta= 0.70
     Davidson diagonalization with overlap
     ethr =  3.37E-08,  avg # of iterations =  2.1

     total cpu time spent up to now is       30.8 secs

     total energy              =    -343.98531432 Ry
     estimated scf accuracy    <       0.00000033 Ry

     iteration #  4     ecut=   100.00 Ry     beta= 0.70
     Davidson diagonalization with overlap
     ethr =  1.50E-09,  avg # of iterations =  1.5

     total cpu time spent up to now is       31.7 secs

     total energy              =    -343.98531436 Ry
     estimated scf accuracy    <       0.00000001 Ry

     iteration #  5     ecut=   100.00 Ry     beta= 0.70
     Davidson diagonalization with overlap
     ethr =  5.11E-11,  avg # of iterations =  2.4

     total cpu time spent up to now is       32.8 secs

     End of self-consistent calculation

          k = 0.0000 0.0000 0.0000 (  1673 PWs)   bands (ev):

   -82.7675 -43.2748 -42.9634 -42.9634   5.0375  15.2664  16.4376  16.4403
    19.2524  19.2524  20.2934  23.8511  29.7686  31.2937  31.2937

          k = 0.0000 0.0000 0.1364 (  1689 PWs)   bands (ev):

   -82.7672 -43.2713 -42.9635 -42.9635   5.3369  13.6706  16.4678  17.0936
    19.2128  19.2128  20.2950  25.2718  29.5962  31.6758  31.6758

          k = 0.0000 0.0000 0.2728 (  1689 PWs)   bands (ev):

   -82.7670 -43.2714 -42.9634 -42.9634   6.1225  11.5114  16.5300  17.4718
    19.1309  19.1309  20.2982  28.3282  29.2629  32.6689  32.6689

          k = 0.0000 0.0000-0.4092 (  1674 PWs)   bands (ev):

   -82.7665 -43.2659 -42.9635 -42.9635   6.7223  10.4041  16.5616  17.5939
    19.0906  19.0906  20.2999  29.1012  30.4643  33.4447  33.4447

          k = 0.0000 0.2083 0.0000 (  1682 PWs)   bands (ev):

   -82.7583 -43.2664 -43.0411 -42.9569   5.8245  15.7703  16.1089  16.6358
    19.3270  19.9316  20.0106  24.0035  24.7507  32.0610  34.0967

          k = 0.0000 0.2083 0.1364 (  1675 PWs)   bands (ev):

   -82.7579 -43.2626 -43.0407 -42.9569   6.1098  14.2047  16.6838  16.9136
    19.2892  19.4479  19.9344  24.9366  25.7821  32.4089  33.5957

          k = 0.0000 0.2083 0.2728 (  1685 PWs)   bands (ev):

   -82.7579 -43.2636 -43.0410 -42.9571   6.8484  12.2386  16.7844  17.4575
    18.7070  19.2119  19.9397  25.4881  29.0531  32.4702  33.2844

          k = 0.0000 0.2083-0.4092 (  1682 PWs)   bands (ev):

   -82.7575 -43.2590 -43.0407 -42.9572   7.3939  11.2276  16.8360  17.8258
    18.2585  19.1747  19.9423  25.7885  31.1971  31.8377  33.9116

          k = 0.0000 0.4167 0.0000 (  1690 PWs)   bands (ev):

   -82.7397 -43.2477 -43.1948 -42.9438   8.1121  15.5650  15.5797  16.6853
    19.2763  19.4790  21.2703  21.9848  24.6702  30.3718  34.1610

          k = 0.0000 0.4167 0.1364 (  1675 PWs)   bands (ev):

   -82.7396 -43.2473 -43.1945 -42.9438   8.3520  14.9981  15.7640  16.8543
    19.2794  19.4466  20.1271  21.7553  26.6558  29.2332  34.4231

          k = 0.0000 0.4167 0.2728 (  1676 PWs)   bands (ev):

   -82.7392 -43.2439 -43.1942 -42.9438   8.9407  14.0518  15.8586  17.0919
    18.7565  19.2856  19.3814  22.0440  26.7324  31.0310  35.0196

          k = 0.0000 0.4167-0.4092 (  1680 PWs)   bands (ev):

   -82.7389 -43.2412 -43.1939 -42.9439   9.3302  13.4800  15.8939  17.1875
    18.3266  19.2896  19.3477  22.2557  26.0948  33.3960  35.3725

          k = 0.0000-0.6250 0.0000 (  1682 PWs)   bands (ev):

   -82.7301 -43.2703 -43.2357 -42.9369  11.4385  11.9141  15.3507  17.0338
    18.9759  19.5587  21.3671  24.1009  25.3929  26.9884  31.5067

          k = 0.0000-0.6250 0.1364 (  1694 PWs)   bands (ev):

   -82.7307 -43.2713 -43.2417 -42.9375  11.7470  11.8525  15.5678  16.9655
    18.9784  19.5230  20.4682  23.5851  23.8432  29.3075  33.3510

          k = 0.0000-0.6250 0.2728 (  1696 PWs)   bands (ev):

   -82.7302 -43.2705 -43.2370 -42.9376  11.7400  12.5597  16.0721  16.6162
    18.9198  18.9848  19.4632  21.8265  23.6678  32.6460  37.4019

          k = 0.0000-0.6250-0.4092 (  1672 PWs)   bands (ev):

   -82.7296 -43.2699 -43.2324 -42.9372  11.6881  13.1905  16.0954  16.3774
    18.3604  18.9881  19.4367  21.1069  23.6331  35.3027  37.7124

          k = 0.2083 0.2083 0.0000 (  1672 PWs)   bands (ev):

   -82.7491 -43.2564 -43.0360 -43.0315   6.5986  16.0987  16.1936  16.9203
    18.6722  19.5082  21.2008  24.0524  24.3604  27.9684  36.6065

          k = 0.2083 0.2083 0.1364 (  1672 PWs)   bands (ev):

   -82.7487 -43.2543 -43.0359 -43.0310   6.8698  14.6718  16.9736  17.0287
    18.5189  19.5046  20.3103  24.3625  26.2257  28.3375  34.9477

          k = 0.2083 0.2083 0.2728 (  1680 PWs)   bands (ev):

   -82.7486 -43.2534 -43.0359 -43.0312   7.5622  12.9196  17.1079  17.6385
    18.1980  19.2848  19.5913  25.0272  28.1122  30.7085  32.9933

          k = 0.2083 0.2083-0.4092 (  1684 PWs)   bands (ev):

   -82.7481 -43.2480 -43.0357 -43.0315   8.0586  12.0075  17.2026  18.0190
    18.0247  18.8509  19.5602  25.4002  28.5435  32.1969  33.1562

          k = 0.2083 0.4167 0.0000 (  1692 PWs)   bands (ev):

   -82.7307 -43.2390 -43.1861 -43.0193   8.8443  15.8763  15.8826  17.1899
    18.5209  18.9346  21.3267  23.2311  25.3684  28.7855  30.8677

          k = 0.2083 0.4167 0.1364 (  1686 PWs)   bands (ev):

   -82.7306 -43.2394 -43.1861 -43.0190   9.0692  15.4189  15.9511  17.3952
    18.3839  19.0319  21.0797  22.0052  27.3847  29.1161  29.6464

          k = 0.2083 0.4167 0.2728 (  1683 PWs)   bands (ev):

   -82.7303 -43.2370 -43.1857 -43.0191   9.6142  14.5477  16.0580  17.6253
    18.2384  19.1895  19.7597  22.2561  27.4455  28.6369  32.2393

          k = 0.2083 0.4167-0.4092 (  1676 PWs)   bands (ev):

   -82.7299 -43.2335 -43.1855 -43.0192   9.9668  14.0440  16.1019  17.6526
    18.3684  19.1005  19.2850  22.5664  26.6634  28.8583  34.8696

          k = 0.2083-0.6250 0.0000 (  1704 PWs)   bands (ev):

   -82.7214 -43.2612 -43.2303 -43.0122  12.1769  12.4263  15.6994  17.6575
    18.3349  18.6250  21.3057  25.7228  26.5137  27.0323  31.5191

          k = 0.2083-0.6250 0.1364 (  1692 PWs)   bands (ev):

   -82.7216 -43.2620 -43.2323 -43.0119  12.3933  12.4516  15.7287  17.6266
    18.5398  18.5776  20.9302  24.3747  24.7537  29.0497  31.9039

          k = 0.2083-0.6250 0.2728 (  1674 PWs)   bands (ev):

   -82.7211 -43.2611 -43.2282 -43.0119  12.3269  13.1403  15.8101  17.3763
    18.4662  19.2441  19.9342  22.3656  23.8917  30.3687  32.2985

          k = 0.2083-0.6250-0.4092 (  1672 PWs)   bands (ev):

   -82.7208 -43.2608 -43.2254 -43.0122  12.2935  13.6163  15.8576  17.0395
    18.5665  19.3315  19.9100  21.2385  23.6968  30.7509  32.5053

          k = 0.4167 0.4167 0.0000 (  1692 PWs)   bands (ev):

   -82.7128 -43.2250 -43.1712 -43.1668  10.9322  16.0200  16.4310  17.5217
    17.6270  18.9394  21.0310  25.0859  25.2923  27.4518  30.9044

          k = 0.4167 0.4167 0.1364 (  1690 PWs)   bands (ev):

   -82.7126 -43.2239 -43.1715 -43.1664  11.1065  15.6991  16.7110  16.7906
    18.4354  19.0889  21.3816  23.2357  25.0113  29.0037  30.9396

          k = 0.4167 0.4167 0.2728 (  1682 PWs)   bands (ev):

   -82.7121 -43.2202 -43.1706 -43.1662  11.5095  15.1864  16.1212  17.6173
    18.9351  19.3544  20.9298  22.4091  24.5413  28.2802  29.9139

          k = 0.4167 0.4167-0.4092 (  1676 PWs)   bands (ev):

   -82.7119 -43.2188 -43.1705 -43.1661  11.7517  14.9159  15.9151  18.6618
    19.0714  19.1731  19.6694  23.2469  24.2934  26.9372  30.2523

          k = 0.4167-0.6250 0.0000 (  1690 PWs)   bands (ev):

   -82.7035 -43.2428 -43.2148 -43.1602  13.6280  14.2658  16.4963  17.4234
    17.5012  18.7212  21.0735  26.3970  26.4396  27.1779  29.1175

          k = 0.4167-0.6250 0.1364 (  1692 PWs)   bands (ev):

   -82.7035 -43.2429 -43.2156 -43.1602  13.6892  14.3602  15.8654  17.4735
    18.4733  18.9379  21.0885  25.7067  25.7753  26.3683  27.5117

          k = 0.4167-0.6250 0.2728 (  1692 PWs)   bands (ev):

   -82.7031 -43.2427 -43.2121 -43.1598  13.8008  14.4932  15.3048  18.0214
    19.2553  20.0373  20.7377  23.6846  24.2550  25.9671  26.7086

          k = 0.4167-0.6250-0.4092 (  1692 PWs)   bands (ev):

   -82.7030 -43.2423 -43.2127 -43.1597  13.8462  14.5284  15.1319  18.9574
    19.4351  19.6943  21.6022  21.9789  23.8190  25.7461  26.4582

          k =-0.6250-0.6250 0.0000 (  1692 PWs)   bands (ev):

   -82.6943 -43.2335 -43.2335 -43.2051  14.3164  16.9621  16.9621  17.0316
    17.3635  17.3635  21.1309  24.4870  24.6414  27.3168  32.3859

          k =-0.6250-0.6250 0.1364 (  1684 PWs)   bands (ev):

   -82.6943 -43.2334 -43.2334 -43.2058  14.4349  15.9456  15.9456  17.3788
    18.8048  18.8048  21.1310  23.8915  24.0038  27.5630  29.1055

          k =-0.6250-0.6250 0.2728 (  1704 PWs)   bands (ev):

   -82.6946 -43.2339 -43.2339 -43.2092  14.6931  15.2119  15.2119  18.3266
    20.7954  20.7954  21.1313  22.4485  22.9673  26.0518  26.0518

          k =-0.6250-0.6250-0.4092 (  1704 PWs)   bands (ev):

   -82.6940 -43.2331 -43.2331 -43.2049  14.8358  14.9655  14.9655  19.1854
    21.1328  21.3534  22.5051  22.6776  22.6776  23.8275  23.8275

     the Fermi energy is    21.5657 ev

!    total energy              =    -343.98531436 Ry
     estimated scf accuracy    <          1.1E-09 Ry
     smearing contrib. (-TS)   =       0.00100826 Ry
     internal energy E=F+TS    =    -343.98632262 Ry

     The total energy is F=E-TS. E is the sum of the following terms:
     one-electron contribution =    -208.39318021 Ry
     hartree contribution      =     121.33975365 Ry
     xc contribution           =     -46.54807019 Ry
     ewald contribution        =    -210.38482587 Ry

     convergence has been achieved in   5 iterations

     Forces acting on atoms (cartesian axes, Ry/au):

     atom    1 type  1   force =     0.00000000    0.00000000    0.00000000
     atom    2 type  2   force =     0.00000000    0.00000000    0.00000000

     Total force =     0.000000     Total SCF correction =     0.000000


     Computing stress (Cartesian axis) and pressure

          total   stress  (Ry/bohr**3)                   (kbar)     P=      608.71
   0.00619192   0.00000000   0.00000000          910.86        0.00        0.00
   0.00000000   0.00619192   0.00000000            0.00      910.86        0.00
   0.00000000   0.00000000   0.00003002            0.00        0.00        4.42

     Energy error            =      8.7E-05 Ry
     Gradient error          =      0.0E+00 Ry/Bohr
     Cell gradient error     =      4.4E+00 kbar

     number of scf cycles    =   4
     number of bfgs steps    =   3

     enthalpy           old  =    -343.9852269970 Ry
     enthalpy           new  =    -343.9853143592 Ry

     CASE: enthalpy          _new < enthalpy          _old

     new trust radius        =       0.0007806204 bohr
     new conv_thr            =       0.0000000100 Ry

     new unit-cell volume =    121.94255 a.u.^3 (    18.07002 Ang^3 )
     density =      7.97452 g/cm^3

CELL_PARAMETERS (alat=  5.38176635)
   0.800000000   0.000000000   0.000000000
   0.000000000   0.800000000   0.000000000
   0.000000000   0.000000000   1.222364609

ATOMIC_POSITIONS (crystal)
Si               0.0000000000        0.0000000000        0.0000000000
Ni               0.5000000000        0.5000000000        0.5000000000



     Writing config-only to output data dir ./tmp/SiNi-vc-relax.save/ :
     XML data file
     NEW-OLD atomic charge density approx. for the potential
     New effective cutoffs (rho, wfc):  397.65   99.98

     total cpu time spent up to now is       33.5 secs

     Self-consistent Calculation

     iteration #  1     ecut=   100.00 Ry     beta= 0.70
     Davidson diagonalization with overlap
     ethr =  1.00E-06,  avg # of iterations =  2.0

     Threshold (ethr) on eigenvalues was too large:
     Diagonalizing with lowered threshold

     Davidson diagonalization with overlap
     ethr =  3.29E-10,  avg # of iterations =  3.9

     total cpu time spent up to now is       35.9 secs

     total energy              =    -343.98531489 Ry
     estimated scf accuracy    <       0.00000002 Ry

     iteration #  2     ecut=   100.00 Ry     beta= 0.70
     Davidson diagonalization with overlap
     ethr =  1.13E-10,  avg # of iterations =  2.0

     total cpu time spent up to now is       36.9 secs

     total energy              =    -343.98531488 Ry
     estimated scf accuracy    <       0.00000004 Ry

     iteration #  3     ecut=   100.00 Ry     beta= 0.70
     Davidson diagonalization with overlap
     ethr =  1.13E-10,  avg # of iterations =  2.0

     total cpu time spent up to now is       37.9 secs

     total energy              =    -343.98531489 Ry
     estimated scf accuracy    <       0.00000002 Ry

     iteration #  4     ecut=   100.00 Ry     beta= 0.70
     Davidson diagonalization with overlap
     ethr =  7.99E-11,  avg # of iterations =  1.1

     total cpu time spent up to now is       38.8 secs

     End of self-consistent calculation

          k = 0.0000 0.0000 0.0000 (  1673 PWs)   bands (ev):

   -82.7749 -43.2818 -42.9707 -42.9707   5.0319  15.2596  16.4283  16.4312
    19.2461  19.2461  20.2865  23.8362  29.7604  31.2881  31.2881

          k = 0.0000 0.0000 0.1363 (  1689 PWs)   bands (ev):

   -82.7745 -43.2782 -42.9707 -42.9707   5.3310  13.6622  16.4613  17.0844
    19.2065  19.2065  20.2881  25.2558  29.5883  31.6696  31.6696

          k = 0.0000 0.0000 0.2727 (  1689 PWs)   bands (ev):

   -82.7744 -43.2783 -42.9707 -42.9707   6.1157  11.5040  16.5234  17.4635
    19.1248  19.1248  20.2913  28.3110  29.2556  32.6614  32.6614

          k = 0.0000 0.0000-0.4090 (  1674 PWs)   bands (ev):

   -82.7739 -43.2728 -42.9708 -42.9708   6.7144  10.3979  16.5549  17.5858
    19.0847  19.0847  20.2930  29.0943  30.4476  33.4355  33.4355

          k = 0.0000 0.2083 0.0000 (  1682 PWs)   bands (ev):

   -82.7657 -43.2734 -43.0484 -42.9642   5.8190  15.7638  16.0991  16.6297
    19.3206  19.9249  20.0019  23.9894  24.7423  32.0551  34.0886

          k = 0.0000 0.2083 0.1363 (  1675 PWs)   bands (ev):

   -82.7653 -43.2696 -43.0480 -42.9642   6.1039  14.1965  16.6776  16.9061
    19.2829  19.4400  19.9277  24.9284  25.7665  32.4026  33.5875

          k = 0.0000 0.2083 0.2727 (  1685 PWs)   bands (ev):

   -82.7653 -43.2706 -43.0483 -42.9644   6.8415  12.2314  16.7778  17.4502
    18.7001  19.2058  19.9329  25.4793  29.0366  32.4622  33.2767

          k = 0.0000 0.2083-0.4090 (  1682 PWs)   bands (ev):

   -82.7648 -43.2659 -43.0480 -42.9645   7.3862  11.2214  16.8293  17.8180
    18.2527  19.1687  19.9355  25.7793  31.1825  31.8308  33.9027

          k = 0.0000 0.4167 0.0000 (  1690 PWs)   bands (ev):

   -82.7471 -43.2547 -43.2021 -42.9511   8.1065  15.5601  15.5722  16.6787
    19.2697  19.4725  21.2616  21.9737  24.6563  30.3594  34.1547

          k = 0.0000 0.4167 0.1363 (  1675 PWs)   bands (ev):

   -82.7470 -43.2542 -43.2018 -42.9511   8.3462  14.9912  15.7587  16.8476
    19.2728  19.4403  20.1176  21.7456  26.6426  29.2208  34.4164

          k = 0.0000 0.4167 0.2727 (  1676 PWs)   bands (ev):

   -82.7465 -43.2508 -43.2015 -42.9511   8.9341  14.0452  15.8530  17.0852
    18.7485  19.2790  19.3753  22.0337  26.7239  31.0151  35.0119

          k = 0.0000 0.4167-0.4090 (  1680 PWs)   bands (ev):

   -82.7463 -43.2481 -43.2011 -42.9512   9.3230  13.4739  15.8880  17.1808
    18.3193  19.2830  19.3417  22.2447  26.0872  33.3828  35.3641

          k = 0.0000-0.6250 0.0000 (  1682 PWs)   bands (ev):

   -82.7374 -43.2776 -43.2426 -42.9442  11.4331  11.9087  15.3440  17.0272
    18.9694  19.5522  21.3589  24.0890  25.3812  26.9757  31.4906

          k = 0.0000-0.6250 0.1363 (  1694 PWs)   bands (ev):

   -82.7381 -43.2786 -43.2486 -42.9448  11.7413  11.8470  15.5612  16.9588
    18.9719  19.5166  20.4591  23.5737  23.8336  29.2941  33.3332

          k = 0.0000-0.6250 0.2727 (  1696 PWs)   bands (ev):

   -82.7375 -43.2778 -43.2440 -42.9449  11.7344  12.5531  16.0660  16.6096
    18.9113  18.9783  19.4570  21.8153  23.6597  32.6317  37.3811

          k = 0.0000-0.6250-0.4090 (  1672 PWs)   bands (ev):

   -82.7370 -43.2772 -43.2393 -42.9445  11.6824  13.1830  16.0892  16.3717
    18.3526  18.9815  19.4306  21.0956  23.6254  35.2907  37.6893

          k = 0.2083 0.2083 0.0000 (  1672 PWs)   bands (ev):

   -82.7564 -43.2634 -43.0433 -43.0388   6.5930  16.0897  16.1874  16.9143
    18.6659  19.5016  21.1911  24.0446  24.3461  27.9603  36.5949

          k = 0.2083 0.2083 0.1363 (  1672 PWs)   bands (ev):

   -82.7561 -43.2613 -43.0432 -43.0383   6.8639  14.6640  16.9675  17.0217
    18.5129  19.4980  20.3015  24.3543  26.2114  28.3281  34.9383

          k = 0.2083 0.2083 0.2727 (  1680 PWs)   bands (ev):

   -82.7559 -43.2603 -43.0432 -43.0385   7.5555  12.9126  17.1015  17.6313
    18.1925  19.2775  19.5845  25.0182  28.1024  30.6916  32.9854

          k = 0.2083 0.2083-0.4090 (  1684 PWs)   bands (ev):

   -82.7554 -43.2549 -43.0430 -43.0388   8.0510  12.0013  17.1959  18.0138
    18.0170  18.8442  19.5536  25.3907  28.5337  32.1897  33.1489

          k = 0.2083 0.4167 0.0000 (  1692 PWs)   bands (ev):

   -82.7380 -43.2460 -43.1933 -43.0266   8.8387  15.8689  15.8777  17.1837
    18.5144  18.9280  21.3182  23.2198  25.3551  28.7769  30.8556

          k = 0.2083 0.4167 0.1363 (  1686 PWs)   bands (ev):

   -82.7380 -43.2463 -43.1934 -43.0263   9.0634  15.4120  15.9460  17.3887
    18.3775  19.0253  21.0704  21.9952  27.3728  29.1063  29.6343

          k = 0.2083 0.4167 0.2727 (  1683 PWs)   bands (ev):

   -82.7376 -43.2439 -43.1930 -43.0264   9.6077  14.5413  16.0527  17.6187
    18.2318  19.1829  19.7516  22.2459  27.4369  28.6280  32.2232

          k = 0.2083 0.4167-0.4090 (  1676 PWs)   bands (ev):

   -82.7373 -43.2404 -43.1928 -43.0265   9.9597  14.0380  16.0965  17.6461
    18.3608  19.0937  19.2785  22.5555  26.6558  28.8492  34.8620

          k = 0.2083-0.6250 0.0000 (  1704 PWs)   bands (ev):

   -82.7288 -43.2685 -43.2373 -43.0195  12.1715  12.4211  15.6928  17.6511
    18.3281  18.6185  21.2975  25.7107  26.5027  27.0199  31.5066

          k = 0.2083-0.6250 0.1363 (  1692 PWs)   bands (ev):

   -82.7289 -43.2693 -43.2392 -43.0192  12.3879  12.4459  15.7224  17.6201
    18.5333  18.5706  20.9217  24.3636  24.7435  29.0387  31.8961

          k = 0.2083-0.6250 0.2727 (  1674 PWs)   bands (ev):

   -82.7284 -43.2684 -43.2351 -43.0192  12.3214  13.1339  15.8045  17.3699
    18.4593  19.2367  19.9262  22.3550  23.8836  30.3595  32.2903

          k = 0.2083-0.6250-0.4090 (  1672 PWs)   bands (ev):

   -82.7281 -43.2681 -43.2323 -43.0194  12.2879  13.6093  15.8522  17.0331
    18.5589  19.3248  19.9032  21.2274  23.6892  30.7421  32.4966

          k = 0.4167 0.4167 0.0000 (  1692 PWs)   bands (ev):

   -82.7201 -43.2320 -43.1784 -43.1741  10.9268  16.0148  16.4242  17.5155
    17.6217  18.9332  21.0227  25.0768  25.2802  27.4388  30.8952

          k = 0.4167 0.4167 0.1363 (  1690 PWs)   bands (ev):

   -82.7200 -43.2309 -43.1788 -43.1737  11.1009  15.6933  16.7058  16.7842
    18.4292  19.0826  21.3731  23.2248  25.0020  28.9925  30.9289

          k = 0.4167 0.4167 0.2727 (  1682 PWs)   bands (ev):

   -82.7194 -43.2271 -43.1779 -43.1734  11.5034  15.1808  16.1164  17.6106
    18.9285  19.3479  20.9207  22.3995  24.5321  28.2716  29.9048

          k = 0.4167 0.4167-0.4090 (  1676 PWs)   bands (ev):

   -82.7193 -43.2258 -43.1778 -43.1734  11.7453  14.9105  15.9105  18.6540
    19.0648  19.1652  19.6631  23.2358  24.2843  26.9302  30.2439

          k = 0.4167-0.6250 0.0000 (  1690 PWs)   bands (ev):

   -82.7108 -43.2501 -43.2218 -43.1674  13.6234  14.2603  16.4899  17.4172
    17.4947  18.7156  21.0657  26.3888  26.4306  27.1663  29.1046

          k = 0.4167-0.6250 0.1363 (  1692 PWs)   bands (ev):

   -82.7109 -43.2502 -43.2226 -43.1675  13.6844  14.3546  15.8597  17.4674
    18.4659  18.9318  21.0805  25.6964  25.7666  26.3589  27.5010

          k = 0.4167-0.6250 0.2727 (  1692 PWs)   bands (ev):

   -82.7104 -43.2500 -43.2190 -43.1671  13.7958  14.4876  15.2996  18.0149
    19.2489  20.0290  20.7292  23.6751  24.2473  25.9580  26.6992

          k = 0.4167-0.6250-0.4090 (  1692 PWs)   bands (ev):

   -82.7104 -43.2496 -43.2197 -43.1670  13.8411  14.5228  15.1267  18.9499
    19.4286  19.6863  21.5913  21.9719  23.8119  25.7372  26.4488

          k =-0.6250-0.6250 0.0000 (  1692 PWs)   bands (ev):

   -82.7017 -43.2408 -43.2408 -43.2121  14.3120  16.9559  16.9559  17.0266
    17.3577  17.3577  21.1237  24.4780  24.6312  27.3061  32.3724

          k =-0.6250-0.6250 0.1363 (  1684 PWs)   bands (ev):

   -82.7016 -43.2407 -43.2407 -43.2127  14.4303  15.9404  15.9404  17.3736
    18.7979  18.7979  21.1238  23.8826  23.9939  27.5528  29.0943

          k =-0.6250-0.6250 0.2727 (  1704 PWs)   bands (ev):

   -82.7020 -43.2412 -43.2412 -43.2162  14.6882  15.2071  15.2071  18.3204
    20.7872  20.7872  21.1241  22.4403  22.9582  26.0423  26.0423

          k =-0.6250-0.6250-0.4090 (  1704 PWs)   bands (ev):

   -82.7014 -43.2404 -43.2404 -43.2119  14.8307  14.9609  14.9609  19.1782
    21.1256  21.3461  22.4963  22.6662  22.6662  23.8214  23.8214

     the Fermi energy is    21.5565 ev

!    total energy              =    -343.98531489 Ry
     estimated scf accuracy    <          1.6E-11 Ry
     smearing contrib. (-TS)   =       0.00100026 Ry
     internal energy E=F+TS    =    -343.98631515 Ry

     The total energy is F=E-TS. E is the sum of the following terms:
     one-electron contribution =    -208.45863733 Ry
     hartree contribution      =     121.36623438 Ry
     xc contribution           =     -46.54735106 Ry
     ewald contribution        =    -210.34656114 Ry

     convergence has been achieved in   4 iterations

     Forces acting on atoms (cartesian axes, Ry/au):

     atom    1 type  1   force =     0.00000000    0.00000000    0.00000000
     atom    2 type  2   force =     0.00000000    0.00000000    0.00000000

     Total force =     0.000000     Total SCF correction =     0.000000


     Computing stress (Cartesian axis) and pressure

          total   stress  (Ry/bohr**3)                   (kbar)     P=      605.99
   0.00618050   0.00000000   0.00000000          909.18        0.00        0.00
   0.00000000   0.00618050   0.00000000            0.00      909.18        0.00
   0.00000000   0.00000000  -0.00000277            0.00        0.00       -0.41

     Energy error            =      5.3E-07 Ry
     Gradient error          =      0.0E+00 Ry/Bohr
     Cell gradient error     =      4.1E-01 kbar

     bfgs converged in   5 scf cycles and   4 bfgs steps
     (criteria: energy <  1.0E-04 Ry, force <  1.0E-03 Ry/Bohr, cell <  5.0E-01 kbar)

     End of BFGS Geometry Optimization

     Final enthalpy           =    -343.9853148917 Ry

     File ./tmp/SiNi-vc-relax.bfgs deleted, as requested
Begin final coordinates
     new unit-cell volume =    121.94255 a.u.^3 (    18.07002 Ang^3 )
     density =      7.97452 g/cm^3

CELL_PARAMETERS (alat=  5.38176635)
   0.800000000   0.000000000   0.000000000
   0.000000000   0.800000000   0.000000000
   0.000000000   0.000000000   1.222364609

ATOMIC_POSITIONS (crystal)
Si               0.0000000000        0.0000000000        0.0000000000
Ni               0.5000000000        0.5000000000        0.5000000000
End final coordinates



     Writing config-only to output data dir ./tmp/SiNi-vc-relax.save/ :
     XML data file

     Final scf calculation at the relaxed structure.
     The G-vectors are recalculated for the final unit cell
     Results may differ from those at the preceding step.

     G-vector sticks info
     --------------------
     sticks:   dense  smooth     PW     G-vecs:    dense   smooth      PW
     Sum         593     593    185                16425    16425    2839

     Using Slab Decomposition



     bravais-lattice index     =            0
     lattice parameter (alat)  =       5.3818  a.u.
     unit-cell volume          =     121.9425 (a.u.)^3
     number of atoms/cell      =            2
     number of atomic types    =            2
     number of electrons       =        22.00
     number of Kohn-Sham states=           15
     kinetic-energy cutoff     =     100.0000  Ry
     charge density cutoff     =     400.0000  Ry
     scf convergence threshold =      1.0E-08
     mixing beta               =       0.7000
     number of iterations used =            8  plain     mixing
     press convergence thresh. =      5.0E-01
     Exchange-correlation= PBE
                           (   1   4   3   4   0   0   0)

     celldm(1)=   5.381766  celldm(2)=   0.000000  celldm(3)=   0.000000
     celldm(4)=   0.000000  celldm(5)=   0.000000  celldm(6)=   0.000000

     crystal axes: (cart. coord. in units of alat)
               a(1) = (   0.800000   0.000000   0.000000 )  
               a(2) = (   0.000000   0.800000   0.000000 )  
               a(3) = (   0.000000   0.000000   1.222365 )  

     reciprocal axes: (cart. coord. in units 2 pi/alat)
               b(1) = (  1.250000  0.000000  0.000000 )  
               b(2) = (  0.000000  1.250000  0.000000 )  
               b(3) = (  0.000000  0.000000  0.818087 )  


     PseudoPot. # 1 for Si read from file:
     ./PSEUDO/Si.upf
     MD5 check sum: 02fab3f35e82123ef5bf1cb05d5b1a5e
     Pseudo is Norm-conserving + core correction, Zval =  4.0
     Generated using ONCVPSP code by D. R. Hamann
     Using radial grid of 1510 points,  6 beta functions with: 
                l(1) =   0
                l(2) =   0
                l(3) =   1
                l(4) =   1
                l(5) =   2
                l(6) =   2

     PseudoPot. # 2 for Ni read from file:
     ./PSEUDO/Ni.upf
     MD5 check sum: 2b0a79d100e227970886d6963e34175b
     Pseudo is Norm-conserving + core correction, Zval = 18.0
     Generated using ONCVPSP code by D. R. Hamann
     Using radial grid of 1372 points,  6 beta functions with: 
                l(1) =   0
                l(2) =   0
                l(3) =   1
                l(4) =   1
                l(5) =   2
                l(6) =   2

     atomic species   valence    mass     pseudopotential
     Si                4.00    28.08550     Si( 1.00)
     Ni               18.00    58.69340     Ni( 1.00)

     16 Sym. Ops., with inversion, found



   Cartesian axes

     site n.     atom                  positions (alat units)
         1        Si     tau(   1) = (   0.0000000   0.0000000   0.0000000  )
         2        Ni     tau(   2) = (   0.4000000   0.4000000   0.6111823  )

     number of k points=    40  Methfessel-Paxton smearing, width (Ry)=  0.0400
                       cart. coord. in units 2pi/alat
        k(    1) = (   0.0000000   0.0000000   0.0000000), wk =   0.0092593
        k(    2) = (   0.0000000   0.0000000   0.1363478), wk =   0.0185185
        k(    3) = (   0.0000000   0.0000000   0.2726955), wk =   0.0185185
        k(    4) = (   0.0000000   0.0000000  -0.4090433), wk =   0.0092593
        k(    5) = (   0.0000000   0.2083333   0.0000000), wk =   0.0370370
        k(    6) = (   0.0000000   0.2083333   0.1363478), wk =   0.0740741
        k(    7) = (   0.0000000   0.2083333   0.2726955), wk =   0.0740741
        k(    8) = (   0.0000000   0.2083333  -0.4090433), wk =   0.0370370
        k(    9) = (   0.0000000   0.4166667   0.0000000), wk =   0.0370370
        k(   10) = (   0.0000000   0.4166667   0.1363478), wk =   0.0740741
        k(   11) = (   0.0000000   0.4166667   0.2726955), wk =   0.0740741
        k(   12) = (   0.0000000   0.4166667  -0.4090433), wk =   0.0370370
        k(   13) = (   0.0000000  -0.6250000   0.0000000), wk =   0.0185185
        k(   14) = (   0.0000000  -0.6250000   0.1363478), wk =   0.0370370
        k(   15) = (   0.0000000  -0.6250000   0.2726955), wk =   0.0370370
        k(   16) = (   0.0000000  -0.6250000  -0.4090433), wk =   0.0185185
        k(   17) = (   0.2083333   0.2083333   0.0000000), wk =   0.0370370
        k(   18) = (   0.2083333   0.2083333   0.1363478), wk =   0.0740741
        k(   19) = (   0.2083333   0.2083333   0.2726955), wk =   0.0740741
        k(   20) = (   0.2083333   0.2083333  -0.4090433), wk =   0.0370370
        k(   21) = (   0.2083333   0.4166667   0.0000000), wk =   0.0740741
        k(   22) = (   0.2083333   0.4166667   0.1363478), wk =   0.1481481
        k(   23) = (   0.2083333   0.4166667   0.2726955), wk =   0.1481481
        k(   24) = (   0.2083333   0.4166667  -0.4090433), wk =   0.0740741
        k(   25) = (   0.2083333  -0.6250000   0.0000000), wk =   0.0370370
        k(   26) = (   0.2083333  -0.6250000   0.1363478), wk =   0.0740741
        k(   27) = (   0.2083333  -0.6250000   0.2726955), wk =   0.0740741
        k(   28) = (   0.2083333  -0.6250000  -0.4090433), wk =   0.0370370
        k(   29) = (   0.4166667   0.4166667   0.0000000), wk =   0.0370370
        k(   30) = (   0.4166667   0.4166667   0.1363478), wk =   0.0740741
        k(   31) = (   0.4166667   0.4166667   0.2726955), wk =   0.0740741
        k(   32) = (   0.4166667   0.4166667  -0.4090433), wk =   0.0370370
        k(   33) = (   0.4166667  -0.6250000   0.0000000), wk =   0.0370370
        k(   34) = (   0.4166667  -0.6250000   0.1363478), wk =   0.0740741
        k(   35) = (   0.4166667  -0.6250000   0.2726955), wk =   0.0740741
        k(   36) = (   0.4166667  -0.6250000  -0.4090433), wk =   0.0370370
        k(   37) = (  -0.6250000  -0.6250000   0.0000000), wk =   0.0092593
        k(   38) = (  -0.6250000  -0.6250000   0.1363478), wk =   0.0185185
        k(   39) = (  -0.6250000  -0.6250000   0.2726955), wk =   0.0185185
        k(   40) = (  -0.6250000  -0.6250000  -0.4090433), wk =   0.0092593

     Dense  grid:    16425 G-vectors     FFT dimensions: (  27,  27,  45)

     Estimated max dynamical RAM per process >      38.60 MB

     Initial potential from superposition of free atoms

     starting charge      21.9992, renormalised to      22.0000
     Starting wfcs are   14 randomized atomic wfcs +    1 random wfcs

     total cpu time spent up to now is       40.2 secs

     Self-consistent Calculation

     iteration #  1     ecut=   100.00 Ry     beta= 0.70
     Davidson diagonalization with overlap
     ethr =  1.00E-06,  avg # of iterations = 11.8

     total cpu time spent up to now is       43.8 secs

     total energy              =    -343.94747204 Ry
     estimated scf accuracy    <       0.08805130 Ry

     iteration #  2     ecut=   100.00 Ry     beta= 0.70
     Davidson diagonalization with overlap
     ethr =  4.00E-04,  avg # of iterations =  2.4

     total cpu time spent up to now is       45.3 secs

     total energy              =    -343.88577767 Ry
     estimated scf accuracy    <       0.78098311 Ry

     iteration #  3     ecut=   100.00 Ry     beta= 0.70
     Davidson diagonalization with overlap
     ethr =  4.00E-04,  avg # of iterations =  2.2

     total cpu time spent up to now is       46.6 secs

     total energy              =    -343.99710574 Ry
     estimated scf accuracy    <       0.00326698 Ry

     iteration #  4     ecut=   100.00 Ry     beta= 0.70
     Davidson diagonalization with overlap
     ethr =  1.48E-05,  avg # of iterations =  1.9

     total cpu time spent up to now is       47.8 secs

     total energy              =    -343.99746543 Ry
     estimated scf accuracy    <       0.00016379 Ry

     iteration #  5     ecut=   100.00 Ry     beta= 0.70
     Davidson diagonalization with overlap
     ethr =  7.44E-07,  avg # of iterations =  2.3

     total cpu time spent up to now is       49.0 secs

     total energy              =    -343.99749293 Ry
     estimated scf accuracy    <       0.00000115 Ry

     iteration #  6     ecut=   100.00 Ry     beta= 0.70
     Davidson diagonalization with overlap
     ethr =  5.21E-09,  avg # of iterations =  3.6

     total cpu time spent up to now is       50.5 secs

     total energy              =    -343.99749361 Ry
     estimated scf accuracy    <       0.00000029 Ry

     iteration #  7     ecut=   100.00 Ry     beta= 0.70
     Davidson diagonalization with overlap
     ethr =  1.32E-09,  avg # of iterations =  2.0

     total cpu time spent up to now is       51.7 secs

     End of self-consistent calculation

          k = 0.0000 0.0000 0.0000 (  2061 PWs)   bands (ev):

   -82.7231 -43.2652 -42.9269 -42.9269   5.0311  15.2543  16.4263  16.4486
    19.2480  19.2480  20.3117  23.8312  29.7612  31.2872  31.2872

          k = 0.0000 0.0000 0.1363 (  2061 PWs)   bands (ev):

   -82.7231 -43.2660 -42.9268 -42.9268   5.3300  13.6587  16.4793  17.0714
    19.2062  19.2062  20.3132  25.2455  29.5887  31.6684  31.6684

          k = 0.0000 0.0000 0.2727 (  2061 PWs)   bands (ev):

   -82.7230 -43.2677 -42.9268 -42.9268   6.1141  11.5031  16.5417  17.4407
    19.1247  19.1247  20.3163  28.3040  29.2549  32.6590  32.6590

          k = 0.0000 0.0000-0.4090 (  2036 PWs)   bands (ev):

   -82.7230 -43.2685 -42.9268 -42.9268   6.7119  10.3974  16.5735  17.5424
    19.0850  19.0850  20.3179  29.0931  30.4461  33.4319  33.4319

          k = 0.0000 0.2083 0.0000 (  2066 PWs)   bands (ev):

   -82.7138 -43.2568 -43.0045 -42.9203   5.8182  15.7581  16.0983  16.6462
    19.3223  19.9492  20.0035  23.9839  24.7440  32.0545  34.0875

          k = 0.0000 0.2083 0.1363 (  2055 PWs)   bands (ev):

   -82.7138 -43.2576 -43.0045 -42.9203   6.1030  14.1930  16.6947  16.8957
    19.2832  19.4352  19.9521  24.9264  25.7585  32.4016  33.5858

          k = 0.0000 0.2083 0.2727 (  2046 PWs)   bands (ev):

   -82.7138 -43.2591 -43.0044 -42.9203   6.8400  12.2308  16.7955  17.4344
    18.6942  19.2069  19.9574  25.4777  29.0303  32.4626  33.2746

          k = 0.0000 0.2083-0.4090 (  2034 PWs)   bands (ev):

   -82.7138 -43.2599 -43.0043 -42.9203   7.3839  11.2214  16.8469  17.7799
    18.2520  19.1696  19.9599  25.7763  31.1806  31.8296  33.8995

          k = 0.0000 0.4167 0.0000 (  2058 PWs)   bands (ev):

   -82.6953 -43.2401 -43.1585 -42.9072   8.1059  15.5618  15.5726  16.6804
    19.2927  19.4732  21.2617  21.9718  24.6540  30.3541  33.7609

          k = 0.0000 0.4167 0.1363 (  2047 PWs)   bands (ev):

   -82.6953 -43.2407 -43.1584 -42.9072   8.3454  14.9929  15.7570  16.8524
    19.2956  19.4402  20.1098  21.7480  26.6372  29.2202  34.4154

          k = 0.0000 0.4167 0.2727 (  2064 PWs)   bands (ev):

   -82.6953 -43.2420 -43.1582 -42.9072   8.9328  14.0458  15.8506  17.0948
    18.7250  19.3017  19.3748  22.0323  26.7214  31.0114  35.0097

          k = 0.0000 0.4167-0.4090 (  2058 PWs)   bands (ev):

   -82.6953 -43.2426 -43.1581 -42.9071   9.3210  13.4749  15.8865  17.1921
    18.2835  19.3058  19.3416  22.2402  26.0855  33.3806  35.3612

          k = 0.0000-0.6250 0.0000 (  2062 PWs)   bands (ev):

   -82.6861 -43.2349 -43.2317 -42.9007  11.4327  11.9089  15.3431  17.0264
    18.9915  19.5498  21.3491  24.0850  25.3831  26.9669  31.4981

          k = 0.0000-0.6250 0.1363 (  2066 PWs)   bands (ev):

   -82.6861 -43.2347 -43.2322 -42.9007  11.7408  11.8473  15.5638  16.9639
    18.9946  19.5191  20.4523  23.5759  23.8361  29.2937  33.3380

          k = 0.0000-0.6250 0.2727 (  2050 PWs)   bands (ev):

   -82.6860 -43.2345 -43.2334 -42.9006  11.7343  12.5516  16.0678  16.6151
    18.8890  19.0008  19.4588  21.8145  23.6616  32.6303  37.3799

          k = 0.0000-0.6250-0.4090 (  2048 PWs)   bands (ev):

   -82.6860 -43.2344 -43.2340 -42.9006  11.6819  13.1798  16.0980  16.3738
    18.3170  19.0039  19.4290  21.0922  23.6227  35.2885  37.6908

          k = 0.2083 0.2083 0.0000 (  2062 PWs)   bands (ev):

   -82.7047 -43.2486 -42.9997 -42.9949   6.5923  16.0890  16.1795  16.9310
    18.6686  19.5223  21.1884  24.0472  24.3397  27.9583  36.7424

          k = 0.2083 0.2083 0.1363 (  2060 PWs)   bands (ev):

   -82.7047 -43.2493 -42.9996 -42.9949   6.8630  14.6623  16.9841  17.0099
    18.5119  19.5165  20.3009  24.3555  26.2007  28.3273  34.9367

          k = 0.2083 0.2083 0.2727 (  2051 PWs)   bands (ev):

   -82.7046 -43.2507 -42.9995 -42.9948   7.5540  12.9120  17.1189  17.6121
    18.1931  19.2710  19.6046  25.0167  28.0959  30.6895  32.9886

          k = 0.2083 0.2083-0.4090 (  2050 PWs)   bands (ev):

   -82.7046 -43.2514 -42.9994 -42.9948   8.0486  12.0014  17.2147  17.9701
    18.0146  18.8426  19.5754  25.3882  28.5299  32.1948  33.1424

          k = 0.2083 0.4167 0.0000 (  2056 PWs)   bands (ev):

   -82.6863 -43.2320 -43.1499 -42.9827   8.8382  15.8691  15.8793  17.1883
    18.5161  18.9422  21.3206  23.2160  25.3540  28.7753  30.8509

          k = 0.2083 0.4167 0.1363 (  2064 PWs)   bands (ev):

   -82.6863 -43.2326 -43.1498 -42.9827   9.0627  15.4137  15.9470  17.3940
    18.3784  19.0374  21.0679  21.9984  27.3675  29.1056  29.6345

          k = 0.2083 0.4167 0.2727 (  2056 PWs)   bands (ev):

   -82.6862 -43.2339 -43.1496 -42.9826   9.6065  14.5427  16.0528  17.6288
    18.2255  19.1888  19.7480  22.2457  27.4373  28.6247  32.2223

          k = 0.2083 0.4167-0.4090 (  2062 PWs)   bands (ev):

   -82.6862 -43.2345 -43.1496 -42.9826   9.9579  14.0403  16.0954  17.6609
    18.3307  19.0940  19.2888  22.5520  26.6567  28.8467  34.8630

          k = 0.2083-0.6250 0.0000 (  2052 PWs)   bands (ev):

   -82.6771 -43.2255 -43.2237 -42.9755  12.1710  12.4220  15.6925  17.6512
    18.3464  18.6204  21.2959  25.7065  26.5072  27.0135  31.5099

          k = 0.2083-0.6250 0.1363 (  2058 PWs)   bands (ev):

   -82.6771 -43.2254 -43.2243 -42.9754  12.3888  12.4452  15.7264  17.6243
    18.5313  18.5879  20.9174  24.3670  24.7447  29.0397  31.8901

          k = 0.2083-0.6250 0.2727 (  2054 PWs)   bands (ev):

   -82.6770 -43.2254 -43.2252 -42.9754  12.3215  13.1322  15.8104  17.3768
    18.4463  19.2509  19.9138  22.3560  23.8869  30.3595  32.2844

          k = 0.2083-0.6250-0.4090 (  2048 PWs)   bands (ev):

   -82.6770 -43.2260 -43.2251 -42.9754  12.2876  13.6065  15.8597  17.0437
    18.5217  19.3258  19.9192  21.2245  23.6889  30.7414  32.4922

          k = 0.4167 0.4167 0.0000 (  2062 PWs)   bands (ev):

   -82.6682 -43.2159 -43.1349 -43.1302  10.9268  16.0222  16.4254  17.5189
    17.6289  18.9302  21.0382  25.0707  25.2775  27.4428  30.8931

          k = 0.4167 0.4167 0.1363 (  2060 PWs)   bands (ev):

   -82.6681 -43.2164 -43.1348 -43.1301  11.1008  15.7003  16.7072  16.7863
    18.4399  19.0745  21.3842  23.2263  24.9961  28.9932  30.9293

          k = 0.4167 0.4167 0.2727 (  2059 PWs)   bands (ev):

   -82.6681 -43.2176 -43.1347 -43.1301  11.5025  15.1876  16.1168  17.6076
    18.9459  19.3273  20.9222  22.4011  24.5272  28.2756  29.9029

          k = 0.4167 0.4167-0.4090 (  2058 PWs)   bands (ev):

   -82.6681 -43.2182 -43.1346 -43.1300  11.7438  14.9183  15.9103  18.6316
    19.0839  19.1627  19.6590  23.2323  24.2817  26.9371  30.2431

          k = 0.4167-0.6250 0.0000 (  2074 PWs)   bands (ev):

   -82.6591 -43.2078 -43.2068 -43.1239  13.6282  14.2594  16.4902  17.4189
    17.5038  18.7093  21.0806  26.3715  26.4390  27.1637  29.1001

          k = 0.4167-0.6250 0.1363 (  2060 PWs)   bands (ev):

   -82.6591 -43.2083 -43.2068 -43.1238  13.6885  14.3535  15.8649  17.4683
    18.4727  18.9284  21.0902  25.6957  25.7577  26.3658  27.4965

          k = 0.4167-0.6250 0.2727 (  2064 PWs)   bands (ev):

   -82.6590 -43.2095 -43.2066 -43.1237  13.7976  14.4859  15.3087  18.0086
    19.2446  20.0333  20.7241  23.6772  24.2520  25.9602  26.6903

          k = 0.4167-0.6250-0.4090 (  2064 PWs)   bands (ev):

   -82.6590 -43.2100 -43.2066 -43.1237  13.8408  14.5219  15.1382  18.9246
    19.4425  19.6828  21.5883  21.9803  23.8160  25.7362  26.4447

          k =-0.6250-0.6250 0.0000 (  2044 PWs)   bands (ev):

   -82.6500 -43.1998 -43.1975 -43.1975  14.3225  16.9562  16.9562  17.0178
    17.3572  17.3572  21.1496  24.4458  24.6423  27.3059  32.3764

          k =-0.6250-0.6250 0.1363 (  2080 PWs)   bands (ev):

   -82.6500 -43.2004 -43.1974 -43.1974  14.4411  15.9406  15.9406  17.3635
    18.7976  18.7976  21.1498  23.8559  24.0000  27.5580  29.0934

          k =-0.6250-0.6250 0.2727 (  2076 PWs)   bands (ev):

   -82.6500 -43.2014 -43.1973 -43.1973  14.7002  15.2086  15.2086  18.3079
    20.7887  20.7887  21.1502  22.4237  22.9595  26.0437  26.0437

          k =-0.6250-0.6250-0.4090 (  2064 PWs)   bands (ev):

   -82.6500 -43.2020 -43.1973 -43.1973  14.8432  14.9607  14.9607  19.1496
    21.1504  21.3413  22.4959  22.6626  22.6626  23.8234  23.8234

     the Fermi energy is    21.5595 ev

!    total energy              =    -343.99749364 Ry
     estimated scf accuracy    <          5.7E-09 Ry
     smearing contrib. (-TS)   =       0.00098318 Ry
     internal energy E=F+TS    =    -343.99847682 Ry

     The total energy is F=E-TS. E is the sum of the following terms:
     one-electron contribution =    -208.49850283 Ry
     hartree contribution      =     121.39932469 Ry
     xc contribution           =     -46.55273753 Ry
     ewald contribution        =    -210.34656114 Ry

     convergence has been achieved in   7 iterations

     Forces acting on atoms (cartesian axes, Ry/au):

     atom    1 type  1   force =     0.00000000    0.00000000    0.00000000
     atom    2 type  2   force =     0.00000000    0.00000000    0.00000000

     Total force =     0.000000     Total SCF correction =     0.000000


     Computing stress (Cartesian axis) and pressure

          total   stress  (Ry/bohr**3)                   (kbar)     P=      752.00
   0.00641596   0.00000000   0.00000000          943.82        0.00        0.00
   0.00000000   0.00641596   0.00000000            0.00      943.82        0.00
   0.00000000   0.00000000   0.00250414            0.00        0.00      368.37


     Writing all to output data dir ./tmp/SiNi-vc-relax.save/ :
     XML data file, charge density, pseudopotentials, collected wavefunctions

     init_run     :      1.96s CPU      2.05s WALL (       2 calls)
     electrons    :     43.81s CPU     45.59s WALL (       6 calls)
     update_pot   :      0.03s CPU      0.04s WALL (       4 calls)
     forces       :      1.00s CPU      1.02s WALL (       6 calls)
     stress       :      3.81s CPU      3.91s WALL (       6 calls)

     Called by init_run:
     wfcinit      :      1.13s CPU      1.21s WALL (       2 calls)
     potinit      :      0.21s CPU      0.22s WALL (       2 calls)
     hinit0       :      0.59s CPU      0.60s WALL (       2 calls)

     Called by electrons:
     c_bands      :     39.40s CPU     40.89s WALL (      36 calls)
     sum_band     :      4.17s CPU      4.44s WALL (      36 calls)
     v_of_rho     :      0.25s CPU      0.26s WALL (      39 calls)
     mix_rho      :      0.03s CPU      0.03s WALL (      36 calls)

     Called by c_bands:
     init_us_2    :      1.11s CPU      1.22s WALL (    3440 calls)
     cegterg      :     37.56s CPU     38.97s WALL (    1440 calls)

     Called by *egterg:
     cdiaghg      :      0.73s CPU      0.77s WALL (    5280 calls)
     h_psi        :     28.11s CPU     29.35s WALL (    5640 calls)
     g_psi        :      0.19s CPU      0.21s WALL (    4120 calls)

     Called by h_psi:
     h_psi:calbec :      3.38s CPU      3.49s WALL (    5640 calls)
     vloc_psi     :     21.33s CPU     22.38s WALL (    5640 calls)
                                        0.00s GPU  (    5640 calls)
     add_vuspsi   :      3.21s CPU      3.29s WALL (    5640 calls)

     General routines
     calbec       :      6.61s CPU      6.79s WALL (    9720 calls)
     fft          :      0.12s CPU      0.13s WALL (     541 calls)
     ffts         :      0.01s CPU      0.01s WALL (      36 calls)
     fftw         :     21.92s CPU     23.56s WALL (  144080 calls)


     PWSCF        :     50.70s CPU     52.73s WALL


   This run was terminated on:  19:48:11   8Jan2026            

=------------------------------------------------------------------------------=
   JOB DONE.
=------------------------------------------------------------------------------=
