
     Program PWSCF v.7.5 starts on  8Jan2026 at 20:35: 1 

     This program is part of the open-source Quantum ESPRESSO suite
     for quantum simulation of materials; please cite
         "P. Giannozzi et al., J. Phys.:Condens. Matter 21 395502 (2009);
         "P. Giannozzi et al., J. Phys.:Condens. Matter 29 465901 (2017);
         "P. Giannozzi et al., J. Chem. Phys. 152 154105 (2020);
          URL http://www.quantum-espresso.org", 
     in publications or presentations arising from this work. More details at
     http://www.quantum-espresso.org/quote

     Serial version
     668 MiB available memory on the printing compute node when the environment starts

     Waiting for input...
     Reading input from standard input

     Current dimensions of program PWSCF are:
     Max number of different atomic species (ntypx) = 10
     Max number of k-points (npk) =  40000
     Max angular momentum in pseudopotentials (lmaxx) =  4
     Message from routine setup:
     using ibrav=0 with symmetry is DISCOURAGED, use correct ibrav instead


     G-vector sticks info
     --------------------
     sticks:   dense  smooth     PW     G-vecs:    dense   smooth      PW
     Sum         853     853    261                19415    19415    3247

     Using Slab Decomposition



     bravais-lattice index     =            0
     lattice parameter (alat)  =       5.3818  a.u.
     unit-cell volume          =     143.6538 (a.u.)^3
     number of atoms/cell      =            2
     number of atomic types    =            2
     number of electrons       =        22.00
     number of Kohn-Sham states=           15
     kinetic-energy cutoff     =     100.0000  Ry
     charge density cutoff     =     400.0000  Ry
     scf convergence threshold =      1.0E-06
     mixing beta               =       0.7000
     number of iterations used =            8  plain     mixing
     energy convergence thresh.=      1.0E-04
     force convergence thresh. =      1.0E-03
     press convergence thresh. =      5.0E-01
     Exchange-correlation= PBE
                           (   1   4   3   4   0   0   0)
     nstep                     =           50


     celldm(1)=   5.381766  celldm(2)=   0.000000  celldm(3)=   0.000000
     celldm(4)=   0.000000  celldm(5)=   0.000000  celldm(6)=   0.000000

     crystal axes: (cart. coord. in units of alat)
               a(1) = (   0.960000   0.000000   0.000000 )  
               a(2) = (   0.000000   0.960000   0.000000 )  
               a(3) = (   0.000000   0.000000   1.000000 )  

     reciprocal axes: (cart. coord. in units 2 pi/alat)
               b(1) = (  1.041667  0.000000  0.000000 )  
               b(2) = (  0.000000  1.041667  0.000000 )  
               b(3) = (  0.000000  0.000000  1.000000 )  


     PseudoPot. # 1 for Si read from file:
     ./PSEUDO/Si.upf
     MD5 check sum: 02fab3f35e82123ef5bf1cb05d5b1a5e
     Pseudo is Norm-conserving + core correction, Zval =  4.0
     Generated using ONCVPSP code by D. R. Hamann
     Using radial grid of 1510 points,  6 beta functions with: 
                l(1) =   0
                l(2) =   0
                l(3) =   1
                l(4) =   1
                l(5) =   2
                l(6) =   2

     PseudoPot. # 2 for Ni read from file:
     ./PSEUDO/Ni.upf
     MD5 check sum: 2b0a79d100e227970886d6963e34175b
     Pseudo is Norm-conserving + core correction, Zval = 18.0
     Generated using ONCVPSP code by D. R. Hamann
     Using radial grid of 1372 points,  6 beta functions with: 
                l(1) =   0
                l(2) =   0
                l(3) =   1
                l(4) =   1
                l(5) =   2
                l(6) =   2

     atomic species   valence    mass     pseudopotential
     Si                4.00    28.08550     Si( 1.00)
     Ni               18.00    58.69340     Ni( 1.00)

     16 Sym. Ops., with inversion, found



   Cartesian axes

     site n.     atom                  positions (alat units)
         1        Si     tau(   1) = (   0.0000000   0.0000000   0.0000000  )
         2        Ni     tau(   2) = (   0.4800000   0.4800000   0.5000000  )

     number of k points=    40  Methfessel-Paxton smearing, width (Ry)=  0.0400
                       cart. coord. in units 2pi/alat
        k(    1) = (   0.0000000   0.0000000   0.0000000), wk =   0.0092593
        k(    2) = (   0.0000000   0.0000000   0.1666667), wk =   0.0185185
        k(    3) = (   0.0000000   0.0000000   0.3333333), wk =   0.0185185
        k(    4) = (   0.0000000   0.0000000  -0.5000000), wk =   0.0092593
        k(    5) = (   0.0000000   0.1736111   0.0000000), wk =   0.0370370
        k(    6) = (   0.0000000   0.1736111   0.1666667), wk =   0.0740741
        k(    7) = (   0.0000000   0.1736111   0.3333333), wk =   0.0740741
        k(    8) = (   0.0000000   0.1736111  -0.5000000), wk =   0.0370370
        k(    9) = (   0.0000000   0.3472222   0.0000000), wk =   0.0370370
        k(   10) = (   0.0000000   0.3472222   0.1666667), wk =   0.0740741
        k(   11) = (   0.0000000   0.3472222   0.3333333), wk =   0.0740741
        k(   12) = (   0.0000000   0.3472222  -0.5000000), wk =   0.0370370
        k(   13) = (   0.0000000  -0.5208333   0.0000000), wk =   0.0185185
        k(   14) = (   0.0000000  -0.5208333   0.1666667), wk =   0.0370370
        k(   15) = (   0.0000000  -0.5208333   0.3333333), wk =   0.0370370
        k(   16) = (   0.0000000  -0.5208333  -0.5000000), wk =   0.0185185
        k(   17) = (   0.1736111   0.1736111   0.0000000), wk =   0.0370370
        k(   18) = (   0.1736111   0.1736111   0.1666667), wk =   0.0740741
        k(   19) = (   0.1736111   0.1736111   0.3333333), wk =   0.0740741
        k(   20) = (   0.1736111   0.1736111  -0.5000000), wk =   0.0370370
        k(   21) = (   0.1736111   0.3472222   0.0000000), wk =   0.0740741
        k(   22) = (   0.1736111   0.3472222   0.1666667), wk =   0.1481481
        k(   23) = (   0.1736111   0.3472222   0.3333333), wk =   0.1481481
        k(   24) = (   0.1736111   0.3472222  -0.5000000), wk =   0.0740741
        k(   25) = (   0.1736111  -0.5208333   0.0000000), wk =   0.0370370
        k(   26) = (   0.1736111  -0.5208333   0.1666667), wk =   0.0740741
        k(   27) = (   0.1736111  -0.5208333   0.3333333), wk =   0.0740741
        k(   28) = (   0.1736111  -0.5208333  -0.5000000), wk =   0.0370370
        k(   29) = (   0.3472222   0.3472222   0.0000000), wk =   0.0370370
        k(   30) = (   0.3472222   0.3472222   0.1666667), wk =   0.0740741
        k(   31) = (   0.3472222   0.3472222   0.3333333), wk =   0.0740741
        k(   32) = (   0.3472222   0.3472222  -0.5000000), wk =   0.0370370
        k(   33) = (   0.3472222  -0.5208333   0.0000000), wk =   0.0370370
        k(   34) = (   0.3472222  -0.5208333   0.1666667), wk =   0.0740741
        k(   35) = (   0.3472222  -0.5208333   0.3333333), wk =   0.0740741
        k(   36) = (   0.3472222  -0.5208333  -0.5000000), wk =   0.0370370
        k(   37) = (  -0.5208333  -0.5208333   0.0000000), wk =   0.0092593
        k(   38) = (  -0.5208333  -0.5208333   0.1666667), wk =   0.0185185
        k(   39) = (  -0.5208333  -0.5208333   0.3333333), wk =   0.0185185
        k(   40) = (  -0.5208333  -0.5208333  -0.5000000), wk =   0.0092593

     Dense  grid:    19415 G-vectors     FFT dimensions: (  36,  36,  36)

     Estimated max dynamical RAM per process >      44.66 MB

     Initial potential from superposition of free atoms

     starting charge      21.9992, renormalised to      22.0000
     Starting wfcs are   14 randomized atomic wfcs +    1 random wfcs

     total cpu time spent up to now is        1.7 secs

     Self-consistent Calculation

     iteration #  1     ecut=   100.00 Ry     beta= 0.70
     Davidson diagonalization with overlap
     ethr =  1.00E-02,  avg # of iterations =  3.6

     Threshold (ethr) on eigenvalues was too large:
     Diagonalizing with lowered threshold

     Davidson diagonalization with overlap
     ethr =  7.56E-04,  avg # of iterations =  1.1

     total cpu time spent up to now is        4.6 secs

     total energy              =    -343.97736952 Ry
     estimated scf accuracy    <       0.16057012 Ry

     iteration #  2     ecut=   100.00 Ry     beta= 0.70
     Davidson diagonalization with overlap
     ethr =  7.30E-04,  avg # of iterations =  2.7

     total cpu time spent up to now is        6.4 secs

     total energy              =    -343.84417006 Ry
     estimated scf accuracy    <       1.73461358 Ry

     iteration #  3     ecut=   100.00 Ry     beta= 0.70
     Davidson diagonalization with overlap
     ethr =  7.30E-04,  avg # of iterations =  2.5

     total cpu time spent up to now is        7.9 secs

     total energy              =    -344.07516336 Ry
     estimated scf accuracy    <       0.00362850 Ry

     iteration #  4     ecut=   100.00 Ry     beta= 0.70
     Davidson diagonalization with overlap
     ethr =  1.65E-05,  avg # of iterations =  2.9

     total cpu time spent up to now is        9.3 secs

     total energy              =    -344.07583332 Ry
     estimated scf accuracy    <       0.00023654 Ry

     iteration #  5     ecut=   100.00 Ry     beta= 0.70
     Davidson diagonalization with overlap
     ethr =  1.08E-06,  avg # of iterations =  2.8

     total cpu time spent up to now is       10.7 secs

     total energy              =    -344.07586133 Ry
     estimated scf accuracy    <       0.00001003 Ry

     iteration #  6     ecut=   100.00 Ry     beta= 0.70
     Davidson diagonalization with overlap
     ethr =  4.56E-08,  avg # of iterations =  2.1

     total cpu time spent up to now is       12.0 secs

     total energy              =    -344.07586380 Ry
     estimated scf accuracy    <       0.00000382 Ry

     iteration #  7     ecut=   100.00 Ry     beta= 0.70
     Davidson diagonalization with overlap
     ethr =  1.74E-08,  avg # of iterations =  1.3

     total cpu time spent up to now is       13.2 secs

     End of self-consistent calculation

          k = 0.0000 0.0000 0.0000 (  2413 PWs)   bands (ev):

   -86.1376 -46.5283 -46.5211 -46.5211   3.3299  13.5220  13.5800  15.5907
    15.5907  15.7183  19.7722  21.2079  21.2079  24.7803  25.0808

          k = 0.0000 0.0000 0.1667 (  2429 PWs)   bands (ev):

   -86.1372 -46.5353 -46.5206 -46.5206   3.8336  13.0513  13.7165  15.3134
    15.3134  15.7431  17.6872  21.9519  21.9519  24.9630  27.0945

          k = 0.0000 0.0000 0.3333 (  2457 PWs)   bands (ev):

   -86.1363 -46.5492 -46.5195 -46.5195   5.2864  10.8686  14.0079  14.8574
    14.8574  15.7931  16.4879  23.8151  23.8151  24.6867  28.9063

          k = 0.0000 0.0000-0.5000 (  2402 PWs)   bands (ev):

   -86.1359 -46.5562 -46.5189 -46.5189   6.9559   8.6544  14.1642  14.6622
    14.6622  15.8183  16.4239  24.5248  25.8006  25.8006  27.4163

          k = 0.0000 0.1736 0.0000 (  2423 PWs)   bands (ev):

   -86.1368 -46.5321 -46.5274 -46.5202   3.8799  13.2640  13.7027  15.1834
    15.4057  15.6260  18.5001  20.6596  21.9927  24.7633  26.9719

          k = 0.0000 0.1736 0.1667 (  2434 PWs)   bands (ev):

   -86.1364 -46.5343 -46.5315 -46.5197   4.3726  13.2343  13.5065  14.8687
    15.3216  15.5046  18.2185  19.2184  22.6590  26.0320  28.8541

          k = 0.0000 0.1736 0.3333 (  2415 PWs)   bands (ev):

   -86.1355 -46.5481 -46.5303 -46.5186   5.7850  11.2554  13.8539  14.5939
    14.9327  15.5531  16.6605  20.5083  24.3306  25.5760  27.7002

          k = 0.0000 0.1736-0.5000 (  2428 PWs)   bands (ev):

   -86.1351 -46.5550 -46.5297 -46.5180   7.3476   9.2049  14.2654  14.2666
    14.7524  15.5889  16.4202  21.7407  24.0790  25.9103  27.3040

          k = 0.0000 0.3472 0.0000 (  2410 PWs)   bands (ev):

   -86.1353 -46.5541 -46.5255 -46.5184   5.4766  11.2637  14.0581  14.5812
    14.8983  15.6975  16.8421  22.7436  23.9504  24.6045  28.5260

          k = 0.0000 0.3472 0.1667 (  2425 PWs)   bands (ev):

   -86.1348 -46.5534 -46.5323 -46.5179   5.9295  11.5822  13.7282  14.5059
    14.9574  15.4970  16.9605  19.9790  24.4298  25.3031  27.6019

          k = 0.0000 0.3472 0.3333 (  2423 PWs)   bands (ev):

   -86.1340 -46.5520 -46.5459 -46.5168   7.1908  12.0334  12.6471  14.4690
    15.0424  15.1734  16.7113  18.5667  22.2702  25.5035  28.4765

          k = 0.0000 0.3472-0.5000 (  2412 PWs)   bands (ev):

   -86.1335 -46.5527 -46.5513 -46.5162   8.4042  10.7435  13.1193  14.2324
    14.9397  15.1749  16.3696  19.2600  20.2573  26.1984  30.5323

          k = 0.0000-0.5208 0.0000 (  2432 PWs)   bands (ev):

   -86.1345 -46.5651 -46.5245 -46.5175   7.4660   8.7585  14.2501  14.3379
    14.6824  15.7336  16.7434  24.4996  25.1475  26.1445  26.1497

          k = 0.0000-0.5208 0.1667 (  2430 PWs)   bands (ev):

   -86.1340 -46.5644 -46.5313 -46.5170   7.7939   9.2597  14.0209  14.3111
    14.7557  15.5440  16.7014  21.5451  23.2293  26.1949  27.4035

          k = 0.0000-0.5208 0.3333 (  2416 PWs)   bands (ev):

   -86.1332 -46.5629 -46.5448 -46.5159   8.6476  10.6588  13.1395  14.1808
    14.9073  15.1971  16.5057  19.2220  19.9230  26.3197  29.4298

          k = 0.0000-0.5208-0.5000 (  2436 PWs)   bands (ev):

   -86.1327 -46.5621 -46.5515 -46.5153   9.2941  12.1235  12.4397  13.3553
    14.9859  15.0371  16.2977  18.4376  18.7682  26.3989  32.1057

          k = 0.1736 0.1736 0.0000 (  2419 PWs)   bands (ev):

   -86.1361 -46.5314 -46.5309 -46.5264   4.4192  13.3911  13.5417  15.0473
    15.1279  15.3943  18.6519  19.5898  21.4342  25.4302  29.6524

          k = 0.1736 0.1736 0.1667 (  2427 PWs)   bands (ev):

   -86.1356 -46.5333 -46.5308 -46.5304   4.9007  13.3561  13.4990  14.7593
    15.0803  15.1630  18.8579  19.2719  20.1451  28.7001  29.3256

          k = 0.1736 0.1736 0.3333 (  2415 PWs)   bands (ev):

   -86.1348 -46.5470 -46.5296 -46.5292   6.2728  11.6086  13.7179  14.6137
    14.8336  15.2794  16.9437  20.6742  21.2728  26.5404  26.9032

          k = 0.1736 0.1736-0.5000 (  2432 PWs)   bands (ev):

   -86.1343 -46.5539 -46.5290 -46.5286   7.7404   9.7186  13.8237  14.4323
    15.0319  15.3190  16.4581  21.8526  22.4894  24.6612  24.8019

          k = 0.1736 0.3472 0.0000 (  2424 PWs)   bands (ev):

   -86.1345 -46.5530 -46.5292 -46.5245   5.9774  11.6233  13.9064  14.6700
    14.7114  15.4198  16.9667  20.7074  23.3038  25.4596  27.6340

          k = 0.1736 0.3472 0.1667 (  2427 PWs)   bands (ev):

   -86.1340 -46.5523 -46.5313 -46.5286   6.4189  11.9107  13.6244  14.6092
    14.8153  15.2000  17.2167  20.3816  21.1545  26.2693  27.0191

          k = 0.1736 0.3472 0.3333 (  2426 PWs)   bands (ev):

   -86.1332 -46.5510 -46.5448 -46.5275   7.6422  12.3419  12.5843  14.5435
    14.9562  15.1962  17.1915  18.6123  22.0681  22.7677  27.9024

          k = 0.1736 0.3472-0.5000 (  2420 PWs)   bands (ev):

   -86.1327 -46.5516 -46.5503 -46.5269   8.8019  11.0799  12.8625  14.4265
    15.1930  15.4021  16.4670  19.2835  20.6596  22.9856  26.3445

          k = 0.1736-0.5208 0.0000 (  2430 PWs)   bands (ev):

   -86.1337 -46.5639 -46.5282 -46.5236   7.8461   9.3026  14.3329  14.3738
    14.4473  15.4707  16.7113  22.1213  24.1863  25.2058  27.0560

          k = 0.1736-0.5208 0.1667 (  2432 PWs)   bands (ev):

   -86.1333 -46.5632 -46.5303 -46.5277   8.1774   9.7668  13.7061  14.4973
    14.9608  15.2389  16.7300  21.8463  22.5562  23.9025  24.7718

          k = 0.1736-0.5208 0.3333 (  2430 PWs)   bands (ev):

   -86.1324 -46.5618 -46.5437 -46.5265   9.0441  10.9933  12.8481  14.3977
    15.1714  15.4183  16.6475  19.2401  20.2988  23.1707  26.1889

          k = 0.1736-0.5208-0.5000 (  2416 PWs)   bands (ev):

   -86.1320 -46.5610 -46.5504 -46.5259   9.7183  11.9948  12.2178  13.9328
    15.5763  15.6240  16.3095  18.2459  18.8042  23.7392  27.2143

          k = 0.3472 0.3472 0.0000 (  2442 PWs)   bands (ev):

   -86.1329 -46.5510 -46.5506 -46.5227   7.3895  12.2513  12.8584  14.6439
    14.8000  14.9974  16.8328  18.8720  22.7212  24.5323  27.7903

          k = 0.3472 0.3472 0.1667 (  2438 PWs)   bands (ev):

   -86.1325 -46.5504 -46.5500 -46.5294   7.7925  12.4970  12.7065  14.4828
    14.9729  15.1089  17.2888  18.8745  21.5487  23.1473  27.3886

          k = 0.3472 0.3472 0.3333 (  2428 PWs)   bands (ev):

   -86.1316 -46.5490 -46.5487 -46.5427   8.8850  12.3994  12.4525  14.8527
    15.2779  15.3005  18.4883  18.6386  18.7824  23.8866  24.1358

          k = 0.3472 0.3472-0.5000 (  2420 PWs)   bands (ev):

   -86.1312 -46.5494 -46.5484 -46.5481   9.8667  11.6775  12.3420  15.2515
    15.3470  16.3340  16.6845  18.6134  20.7231  20.9587  22.9043

          k = 0.3472-0.5208 0.0000 (  2452 PWs)   bands (ev):

   -86.1321 -46.5616 -46.5497 -46.5217   8.8581  10.8263  13.3573  14.3703
    14.6770  15.0064  16.5601  19.5410  20.4945  25.3575  29.3737

          k = 0.3472-0.5208 0.1667 (  2430 PWs)   bands (ev):

   -86.1317 -46.5609 -46.5491 -46.5284   9.2011  11.1112  12.9379  14.4693
    15.1175  15.3142  16.6745  19.4845  20.8027  22.7171  25.5618

          k = 0.3472-0.5208 0.3333 (  2426 PWs)   bands (ev):

   -86.1308 -46.5595 -46.5478 -46.5417  10.0968  11.6066  12.3371  15.1518
    15.3534  16.3891  16.9002  18.5765  20.7503  20.9289  22.5947

          k = 0.3472-0.5208-0.5000 (  2424 PWs)   bands (ev):

   -86.1304 -46.5589 -46.5483 -46.5472  10.8352  11.7857  11.8967  15.3881
    16.3341  17.0401  17.2064  17.3157  18.8532  21.1462  23.0277

          k =-0.5208-0.5208 0.0000 (  2464 PWs)   bands (ev):

   -86.1313 -46.5604 -46.5604 -46.5208   9.6799  12.5185  12.5185  13.4598
    14.7979  14.7979  16.4138  18.6256  19.1433  25.4605  31.5110

          k =-0.5208-0.5208 0.1667 (  2436 PWs)   bands (ev):

   -86.1309 -46.5598 -46.5598 -46.5274  10.0565  12.2308  12.2308  13.9812
    15.4958  15.4958  16.4205  18.3489  19.1211  23.4443  26.8223

          k =-0.5208-0.5208 0.3333 (  2424 PWs)   bands (ev):

   -86.1300 -46.5584 -46.5584 -46.5406  11.0362  11.8447  11.8447  15.3181
    16.4339  17.1255  17.1255  17.2587  18.9650  21.4473  22.9235

          k =-0.5208-0.5208-0.5000 (  2400 PWs)   bands (ev):

   -86.1296 -46.5578 -46.5578 -46.5472  11.6964  11.6964  11.7685  16.2832
    16.3214  16.4407  18.6917  18.8311  18.8311  20.4762  20.4762

     the Fermi energy is    18.4253 ev

!    total energy              =    -344.07586406 Ry
     estimated scf accuracy    <       0.00000011 Ry
     smearing contrib. (-TS)   =      -0.00162210 Ry
     internal energy E=F+TS    =    -344.07424197 Ry

     The total energy is F=E-TS. E is the sum of the following terms:
     one-electron contribution =    -212.00415885 Ry
     hartree contribution      =     120.37082127 Ry
     xc contribution           =     -46.25889087 Ry
     ewald contribution        =    -206.18201352 Ry

     convergence has been achieved in   7 iterations

     Forces acting on atoms (cartesian axes, Ry/au):

     atom    1 type  1   force =     0.00000000    0.00000000    0.00000000
     atom    2 type  2   force =     0.00000000    0.00000000    0.00000000

     Total force =     0.000000     Total SCF correction =     0.000000


     Computing stress (Cartesian axis) and pressure

          total   stress  (Ry/bohr**3)                   (kbar)     P=      155.86
   0.00094156   0.00000000   0.00000000          138.51        0.00        0.00
   0.00000000   0.00094156   0.00000000            0.00      138.51        0.00
   0.00000000   0.00000000   0.00129540            0.00        0.00      190.56


     BFGS Geometry Optimization
     Energy error            =      5.9E-03 Ry
     Gradient error          =      0.0E+00 Ry/Bohr
     Cell gradient error     =      1.9E+02 kbar

     number of scf cycles    =   1
     number of bfgs steps    =   0

     enthalpy           new  =    -344.0758640649 Ry

     new trust radius        =       0.0776303013 bohr
     new conv_thr            =       0.0000010000 Ry

     new unit-cell volume =    148.30597 a.u.^3 (    21.97668 Ang^3 )
     density =      6.55694 g/cm^3

CELL_PARAMETERS (alat=  5.38176635)
   0.960000000   0.000000000   0.000000000
   0.000000000   0.960000000   0.000000000
   0.000000000   0.000000000   1.032384917

ATOMIC_POSITIONS (crystal)
Si               0.0000000000        0.0000000000        0.0000000000
Ni               0.5000000000        0.5000000000        0.5000000000



     Writing config-only to output data dir ./tmp/SiNi-vc-relax.save/ :
     XML data file
     NEW-OLD atomic charge density approx. for the potential
     New effective cutoffs (rho, wfc):  399.13  100.00

     total cpu time spent up to now is       14.4 secs

     Self-consistent Calculation

     iteration #  1     ecut=   100.00 Ry     beta= 0.70
     Davidson diagonalization with overlap
     ethr =  1.00E-06,  avg # of iterations =  7.1

     total cpu time spent up to now is       17.5 secs

     total energy              =    -344.08027935 Ry
     estimated scf accuracy    <       0.00103332 Ry

     iteration #  2     ecut=   100.00 Ry     beta= 0.70
     Davidson diagonalization with overlap
     ethr =  4.70E-06,  avg # of iterations =  3.0

     total cpu time spent up to now is       19.2 secs

     total energy              =    -344.07945650 Ry
     estimated scf accuracy    <       0.01224465 Ry

     iteration #  3     ecut=   100.00 Ry     beta= 0.70
     Davidson diagonalization with overlap
     ethr =  4.70E-06,  avg # of iterations =  2.4

     total cpu time spent up to now is       20.8 secs

     total energy              =    -344.08095749 Ry
     estimated scf accuracy    <       0.00000275 Ry

     iteration #  4     ecut=   100.00 Ry     beta= 0.70
     Davidson diagonalization with overlap
     ethr =  1.25E-08,  avg # of iterations =  4.2

     total cpu time spent up to now is       22.7 secs

     total energy              =    -344.08095993 Ry
     estimated scf accuracy    <       0.00000324 Ry

     iteration #  5     ecut=   100.00 Ry     beta= 0.70
     Davidson diagonalization with overlap
     ethr =  1.25E-08,  avg # of iterations =  1.0

     total cpu time spent up to now is       23.9 secs

     End of self-consistent calculation

          k = 0.0000 0.0000 0.0000 (  2413 PWs)   bands (ev):

   -86.7097 -47.1054 -47.0858 -47.0858   2.9559  13.0223  13.1324  14.9997
    14.9997  15.2149  18.3737  20.8281  20.8281  23.7515  24.4294

          k = 0.0000 0.0000 0.1614 (  2429 PWs)   bands (ev):

   -86.7095 -47.1101 -47.0855 -47.0855   3.4243  12.4579  13.2490  14.7666
    14.7666  15.2341  16.6159  21.5101  21.5101  24.3120  26.1791

          k = 0.0000 0.0000 0.3229 (  2457 PWs)   bands (ev):

   -86.7089 -47.1196 -47.0848 -47.0848   4.7676  10.2084  13.4961  14.3738
    14.3738  15.2729  15.6847  23.2364  23.2364  24.0431  28.1360

          k = 0.0000 0.0000-0.4843 (  2402 PWs)   bands (ev):

   -86.7087 -47.1243 -47.0844 -47.0844   6.2292   8.1867  13.6275  14.2030
    14.2030  15.2924  15.6484  23.8895  24.9709  24.9709  26.9547

          k = 0.0000 0.1736 0.0000 (  2423 PWs)   bands (ev):

   -86.7089 -47.1044 -47.0967 -47.0849   3.5050  12.8431  13.2177  14.5355
    14.9250  15.0359  17.9997  19.3135  21.5798  23.7992  26.1552

          k = 0.0000 0.1736 0.1614 (  2434 PWs)   bands (ev):

   -86.7087 -47.1092 -47.0963 -47.0846   3.9628  12.6676  13.0552  14.2781
    14.7943  14.9929  17.2507  18.5960  22.1898  25.3948  27.5896

          k = 0.0000 0.1736 0.3229 (  2415 PWs)   bands (ev):

   -86.7081 -47.1185 -47.0955 -47.0839   5.2672  10.6145  13.3785  14.0654
    14.4480  15.0439  15.8747  19.8385  23.7284  24.9187  26.9041

          k = 0.0000 0.1736-0.4843 (  2428 PWs)   bands (ev):

   -86.7079 -47.1232 -47.0951 -47.0835   6.6365   8.7390  13.7315  13.7925
    14.2911  15.0729  15.6595  20.9252  23.5283  25.1084  26.5773

          k = 0.0000 0.3472 0.0000 (  2410 PWs)   bands (ev):

   -86.7074 -47.1184 -47.1026 -47.0832   5.1013  10.8911  13.5698  13.8966
    14.4470  15.1090  16.2842  21.4262  23.4767  23.7734  27.5544

          k = 0.0000 0.3472 0.1614 (  2425 PWs)   bands (ev):

   -86.7071 -47.1179 -47.1072 -47.0828   5.5210  11.1792  13.1389  13.9239
    14.4952  14.9438  16.3817  18.9329  23.9060  24.3862  26.7363

          k = 0.0000 0.3472 0.3229 (  2423 PWs)   bands (ev):

   -86.7066 -47.1170 -47.1163 -47.0821   6.6806  11.4870  12.1296  13.9147
    14.5611  14.6754  16.0234  17.7756  21.4303  24.8680  27.7918

          k = 0.0000 0.3472-0.4843 (  2412 PWs)   bands (ev):

   -86.7063 -47.1210 -47.1165 -47.0817   7.7481  10.2840  12.5633  13.7135
    14.4734  14.6750  15.6618  18.4184  19.6065  25.4730  28.4551

          k = 0.0000-0.5208 0.0000 (  2432 PWs)   bands (ev):

   -86.7066 -47.1292 -47.1016 -47.0823   7.1053   8.3654  13.6467  13.7594
    14.2417  15.1460  16.1972  23.7430  23.8737  24.7728  25.5597

          k = 0.0000-0.5208 0.1614 (  2430 PWs)   bands (ev):

   -86.7063 -47.1287 -47.1062 -47.0819   7.4028   8.8324  13.3697  13.7963
    14.3026  14.9905  16.1426  20.5768  22.0616  25.5953  26.7003

          k = 0.0000-0.5208 0.3229 (  2416 PWs)   bands (ev):

   -86.7058 -47.1277 -47.1153 -47.0812   8.1655  10.1338  12.5976  13.6238
    14.4281  14.7023  15.8950  18.3569  19.0280  25.6806  28.7798

          k = 0.0000-0.5208-0.4843 (  2436 PWs)   bands (ev):

   -86.7055 -47.1272 -47.1198 -47.0809   8.7202  11.4516  11.9993  12.8560
    14.4928  14.5680  15.6412  17.6153  18.0216  25.7326  31.2886

          k = 0.1736 0.1736 0.0000 (  2419 PWs)   bands (ev):

   -86.7082 -47.1035 -47.0959 -47.0955   4.0441  12.9789  13.0869  14.4641
    14.5881  14.7941  18.1088  19.1061  20.1117  24.2642  29.1618

          k = 0.1736 0.1736 0.1614 (  2427 PWs)   bands (ev):

   -86.7079 -47.1082 -47.0955 -47.0951   4.4913  12.8061  13.0727  14.1798
    14.5158  14.6728  17.8856  18.6819  19.5568  27.4409  28.6692

          k = 0.1736 0.1736 0.3229 (  2415 PWs)   bands (ev):

   -86.7074 -47.1175 -47.0947 -47.0944   5.7571  10.9877  13.2705  14.0822
    14.3156  14.7774  16.1642  19.9889  20.6201  25.8277  26.1006

          k = 0.1736 0.1736-0.4843 (  2432 PWs)   bands (ev):

   -86.7071 -47.1221 -47.0943 -47.0940   7.0442   9.2564  13.3786  13.8966
    14.5266  14.8152  15.7030  21.0365  21.6644  24.1153  24.2321

          k = 0.1736 0.3472 0.0000 (  2424 PWs)   bands (ev):

   -86.7066 -47.1173 -47.1016 -47.0938   5.6046  11.2511  13.4619  13.9959
    14.2644  14.8146  16.3960  20.1840  21.9946  24.5471  26.8620

          k = 0.1736 0.3472 0.1614 (  2427 PWs)   bands (ev):

   -86.7063 -47.1168 -47.1062 -47.0935   6.0136  11.5108  13.0870  14.0474
    14.3228  14.6420  16.6257  19.3663  20.5497  25.2369  26.3722

          k = 0.1736 0.3472 0.3229 (  2426 PWs)   bands (ev):

   -86.7058 -47.1159 -47.1153 -47.0927   7.1381  11.8001  12.1083  14.0286
    14.4256  14.6806  16.4944  17.8256  21.3844  21.9425  27.1653

          k = 0.1736 0.3472-0.4843 (  2420 PWs)   bands (ev):

   -86.7055 -47.1199 -47.1155 -47.0923   8.1586  10.6321  12.3701  13.9163
    14.6842  14.8653  15.7436  18.4510  20.0297  22.1873  25.7832

          k = 0.1736-0.5208 0.0000 (  2430 PWs)   bands (ev):

   -86.7058 -47.1280 -47.1007 -47.0929   7.4949   8.9063  13.7699  13.9013
    13.9072  14.8684  16.1621  21.5814  23.7021  23.9231  25.6880

          k = 0.1736-0.5208 0.1614 (  2432 PWs)   bands (ev):

   -86.7056 -47.1276 -47.1052 -47.0925   7.7965   9.3379  13.1563  13.9968
    14.4256  14.6730  16.1716  20.8935  21.9149  22.7471  24.2324

          k = 0.1736-0.5208 0.3229 (  2430 PWs)   bands (ev):

   -86.7050 -47.1266 -47.1143 -47.0918   8.5746  10.4774  12.3491  13.8648
    14.6365  14.8966  16.0557  18.3827  19.4049  22.4998  25.5145

          k = 0.1736-0.5208-0.4843 (  2416 PWs)   bands (ev):

   -86.7048 -47.1261 -47.1188 -47.0914   9.1556  11.3977  11.7950  13.4302
    15.0284  15.1134  15.6561  17.4369  18.0742  22.9704  26.4283

          k = 0.3472 0.3472 0.0000 (  2442 PWs)   bands (ev):

   -86.7050 -47.1154 -47.1149 -47.0997   7.0292  11.8799  12.4781  14.1438
    14.2068  14.3783  16.2558  18.2720  22.1916  23.2257  26.5635

          k = 0.3472 0.3472 0.1614 (  2438 PWs)   bands (ev):

   -86.7048 -47.1149 -47.1145 -47.1043   7.4022  12.0899  12.2968  13.8981
    14.4748  14.5327  16.6848  18.2430  20.5094  22.5781  26.2815

          k = 0.3472 0.3472 0.3229 (  2428 PWs)   bands (ev):

   -86.7043 -47.1140 -47.1137 -47.1133   8.4056  11.9261  12.0143  14.2961
    14.7341  14.7765  17.6675  17.9838  18.0695  23.0466  23.4244

          k = 0.3472 0.3472-0.4843 (  2420 PWs)   bands (ev):

   -86.7040 -47.1178 -47.1136 -47.1133   9.2706  11.2617  11.8966  14.7604
    14.8064  15.7122  15.9483  17.8277  19.8493  20.3971  22.2882

          k = 0.3472-0.5208 0.0000 (  2452 PWs)   bands (ev):

   -86.7043 -47.1258 -47.1141 -47.0988   8.5373  10.4242  12.9682  13.9410
    14.0307  14.3844  16.0038  18.8955  19.9897  24.0527  28.0261

          k = 0.3472-0.5208 0.1614 (  2430 PWs)   bands (ev):

   -86.7040 -47.1253 -47.1137 -47.1033   8.8528  10.6823  12.4955  13.9737
    14.5590  14.7209  16.1111  18.7795  20.2586  21.7437  24.4281

          k = 0.3472-0.5208 0.3229 (  2426 PWs)   bands (ev):

   -86.7035 -47.1244 -47.1128 -47.1122   9.6702  11.1315  11.8910  14.5798
    14.8176  15.8020  16.3231  17.7688  20.0138  20.2005  21.7716

          k = 0.3472-0.5208-0.4843 (  2424 PWs)   bands (ev):

   -86.7032 -47.1239 -47.1167 -47.1124  10.3172  11.2954  11.4973  14.8639
    15.6893  16.3810  16.5277  16.6723  18.1963  20.2835  22.2097

          k =-0.5208-0.5208 0.0000 (  2464 PWs)   bands (ev):

   -86.7035 -47.1246 -47.1246 -47.0979   9.3972  12.1287  12.1287  13.0303
    14.1691  14.1691  15.8636  17.9235  18.6335  24.1414  30.2612

          k =-0.5208-0.5208 0.1614 (  2436 PWs)   bands (ev):

   -86.7032 -47.1242 -47.1242 -47.1023   9.7511  11.8085  11.8085  13.5085
    14.8930  14.8930  15.8685  17.5916  18.5902  22.4776  25.7469

          k =-0.5208-0.5208 0.3229 (  2424 PWs)   bands (ev):

   -86.7027 -47.1233 -47.1233 -47.1112  10.6767  11.3999  11.3999  14.7382
    15.8783  16.4161  16.5261  16.5261  18.3721  20.8168  22.0294

          k =-0.5208-0.5208-0.4843 (  2400 PWs)   bands (ev):

   -86.7024 -47.1229 -47.1229 -47.1157  11.2463  11.2463  11.3781  15.4473
    15.6667  15.8832  18.0490  18.2882  18.2882  19.5870  19.5870

     the Fermi energy is    17.6460 ev

!    total energy              =    -344.08095967 Ry
     estimated scf accuracy    <       0.00000047 Ry
     smearing contrib. (-TS)   =      -0.00058994 Ry
     internal energy E=F+TS    =    -344.08036972 Ry

     The total energy is F=E-TS. E is the sum of the following terms:
     one-electron contribution =    -215.81421948 Ry
     hartree contribution      =     121.81577243 Ry
     xc contribution           =     -46.21227974 Ry
     ewald contribution        =    -203.86964293 Ry

     convergence has been achieved in   5 iterations

     Forces acting on atoms (cartesian axes, Ry/au):

     atom    1 type  1   force =     0.00000000    0.00000000    0.00000000
     atom    2 type  2   force =     0.00000000    0.00000000    0.00000000

     Total force =     0.000000     Total SCF correction =     0.000000


     Computing stress (Cartesian axis) and pressure

          total   stress  (Ry/bohr**3)                   (kbar)     P=       89.40
   0.00046408   0.00000000   0.00000000           68.27        0.00        0.00
   0.00000000   0.00046408   0.00000000            0.00       68.27        0.00
   0.00000000   0.00000000   0.00089509            0.00        0.00      131.67

     Energy error            =      5.1E-03 Ry
     Gradient error          =      0.0E+00 Ry/Bohr
     Cell gradient error     =      1.3E+02 kbar

     number of scf cycles    =   2
     number of bfgs steps    =   1

     enthalpy           old  =    -344.0758640649 Ry
     enthalpy           new  =    -344.0809596651 Ry

     CASE: enthalpy          _new < enthalpy          _old

     new trust radius        =       0.1146045092 bohr
     new conv_thr            =       0.0000000100 Ry

     new unit-cell volume =    155.28429 a.u.^3 (    23.01076 Ang^3 )
     density =      6.26228 g/cm^3

CELL_PARAMETERS (alat=  5.38176635)
   0.960000000   0.000000000   0.000000000
   0.000000000   0.960000000   0.000000000
   0.000000000   0.000000000   1.080962292

ATOMIC_POSITIONS (crystal)
Si               0.0000000000        0.0000000000        0.0000000000
Ni               0.5000000000        0.5000000000        0.5000000000



     Writing config-only to output data dir ./tmp/SiNi-vc-relax.save/ :
     XML data file
     NEW-OLD atomic charge density approx. for the potential
     New effective cutoffs (rho, wfc):  399.02  100.00

     total cpu time spent up to now is       25.1 secs

     Self-consistent Calculation

     iteration #  1     ecut=   100.00 Ry     beta= 0.70
     Davidson diagonalization with overlap
     ethr =  1.00E-06,  avg # of iterations =  7.5

     total cpu time spent up to now is       28.7 secs

     total energy              =    -344.08304014 Ry
     estimated scf accuracy    <       0.00165071 Ry

     iteration #  2     ecut=   100.00 Ry     beta= 0.70
     Davidson diagonalization with overlap
     ethr =  7.50E-06,  avg # of iterations =  2.9

     total cpu time spent up to now is       30.4 secs

     total energy              =    -344.08160914 Ry
     estimated scf accuracy    <       0.02091552 Ry

     iteration #  3     ecut=   100.00 Ry     beta= 0.70
     Davidson diagonalization with overlap
     ethr =  7.50E-06,  avg # of iterations =  2.4

     total cpu time spent up to now is       32.0 secs

     total energy              =    -344.08412283 Ry
     estimated scf accuracy    <       0.00000526 Ry

     iteration #  4     ecut=   100.00 Ry     beta= 0.70
     Davidson diagonalization with overlap
     ethr =  2.39E-08,  avg # of iterations =  4.2

     total cpu time spent up to now is       33.8 secs

     total energy              =    -344.08412755 Ry
     estimated scf accuracy    <       0.00000622 Ry

     iteration #  5     ecut=   100.00 Ry     beta= 0.70
     Davidson diagonalization with overlap
     ethr =  2.39E-08,  avg # of iterations =  1.0

     total cpu time spent up to now is       35.1 secs

     total energy              =    -344.08412753 Ry
     estimated scf accuracy    <       0.00000100 Ry

     iteration #  6     ecut=   100.00 Ry     beta= 0.70
     Davidson diagonalization with overlap
     ethr =  4.53E-09,  avg # of iterations =  2.0

     total cpu time spent up to now is       36.5 secs

     End of self-consistent calculation

          k = 0.0000 0.0000 0.0000 (  2413 PWs)   bands (ev):

   -87.4980 -47.9136 -47.8575 -47.8575   2.4285  12.3123  12.5123  14.1916
    14.1916  14.5211  16.5102  20.2880  20.2880  22.1255  23.5243

          k = 0.0000 0.0000 0.1542 (  2429 PWs)   bands (ev):

   -87.4979 -47.9163 -47.8573 -47.8573   2.8483  11.6038  12.6042  14.0110
    14.0110  14.5343  15.1859  20.8869  20.8869  23.4103  24.6008

          k = 0.0000 0.0000 0.3084 (  2457 PWs)   bands (ev):

   -87.4976 -47.9215 -47.8570 -47.8570   4.0387   9.3038  12.7971  13.6972
    13.6972  14.5607  14.5925  22.4153  22.4153  23.1572  27.0119

          k = 0.0000 0.0000-0.4626 (  2402 PWs)   bands (ev):

   -87.4975 -47.9241 -47.8567 -47.8567   5.2366   7.5381  12.8987  13.5580
    13.5580  14.5741  14.5881  23.0171  23.8283  23.8283  26.3159

          k = 0.0000 0.1736 0.0000 (  2423 PWs)   bands (ev):

   -87.4972 -47.9126 -47.8682 -47.8566   2.9761  12.2514  12.5387  13.6285
    14.2285  14.2600  17.2885  17.5414  20.9952  22.2319  25.1385

          k = 0.0000 0.1736 0.1542 (  2434 PWs)   bands (ev):

   -87.4971 -47.9154 -47.8680 -47.8565   3.3860  11.8411  12.4429  13.4580
    14.0517  14.3013  15.9080  17.7806  21.5291  24.3939  25.7501

          k = 0.0000 0.1736 0.3084 (  2415 PWs)   bands (ev):

   -87.4968 -47.9204 -47.8675 -47.8561   4.5396   9.7349  12.7243  13.3351
    13.7691  14.3463  14.8041  18.8983  22.8780  24.0126  25.8187

          k = 0.0000 0.1736-0.4626 (  2428 PWs)   bands (ev):

   -87.4967 -47.9229 -47.8673 -47.8559   5.6632   8.0926  13.0049  13.1355
    13.6420  14.3678  14.6167  19.7945  22.7702  24.0030  25.5824

          k = 0.0000 0.3472 0.0000 (  2410 PWs)   bands (ev):

   -87.4957 -47.9108 -47.8894 -47.8549   4.5713  10.3726  12.8812  12.9513
    13.8206  14.3030  15.5004  19.6771  22.4254  22.8056  26.3240

          k = 0.0000 0.3472 0.1542 (  2425 PWs)   bands (ev):

   -87.4956 -47.9133 -47.8892 -47.8548   4.9450  10.6187  12.2999  13.1371
    13.8557  14.1794  15.5639  17.5160  23.0712  23.1686  25.4289

          k = 0.0000 0.3472 0.3084 (  2423 PWs)   bands (ev):

   -87.4953 -47.9184 -47.8887 -47.8544   5.9633  10.7185  11.4344  13.1573
    13.8912  13.9862  15.0441  16.7037  20.2983  23.9801  26.8247

          k = 0.0000 0.3472-0.4626 (  2412 PWs)   bands (ev):

   -87.4951 -47.9208 -47.8884 -47.8542   6.8433   9.6467  11.8040  13.0068
    13.8151  13.9918  14.6756  17.2499  18.7357  24.4723  27.3849

          k = 0.0000-0.5208 0.0000 (  2432 PWs)   bands (ev):

   -87.4949 -47.9099 -47.9001 -47.8541   6.5913   7.8191  12.6988  13.0665
    13.6293  14.3407  15.4385  22.1743  22.5458  22.9221  24.7351

          k = 0.0000-0.5208 0.1542 (  2430 PWs)   bands (ev):

   -87.4948 -47.9123 -47.8998 -47.8539   6.8467   8.2399  12.4761  13.0771
    13.6756  14.2250  15.3624  19.2345  20.4889  24.7527  25.5902

          k = 0.0000-0.5208 0.3084 (  2416 PWs)   bands (ev):

   -87.4945 -47.9174 -47.8992 -47.8535   7.4854   9.4078  11.8563  12.8629
    13.7703  14.0073  15.0249  17.1628  17.8436  24.7932  27.8268

          k = 0.0000-0.5208-0.4626 (  2436 PWs)   bands (ev):

   -87.4944 -47.9197 -47.8989 -47.8533   7.9240  10.5360  11.3915  12.1707
    13.8188  13.9043  14.7084  16.4741  17.0414  24.8166  29.1954

          k = 0.1736 0.1736 0.0000 (  2419 PWs)   bands (ev):

   -87.4965 -47.9117 -47.8674 -47.8671   3.5148  12.4075  12.4431  13.5342
    13.9498  13.9747  17.3469  18.3700  18.4172  22.5396  28.4693

          k = 0.1736 0.1736 0.1542 (  2427 PWs)   bands (ev):

   -87.4963 -47.9144 -47.8672 -47.8669   3.9147  12.0134  12.4838  13.3668
    13.7409  14.0063  16.5418  17.8559  18.7788  25.4934  27.6622

          k = 0.1736 0.1736 0.3084 (  2415 PWs)   bands (ev):

   -87.4961 -47.9194 -47.8668 -47.8665   5.0324  10.1349  12.6530  13.3544
    13.5844  14.0898  15.1048  19.0240  19.7086  24.8535  25.0122

          k = 0.1736 0.1736-0.4626 (  2432 PWs)   bands (ev):

   -87.4959 -47.9219 -47.8666 -47.8663   6.0897   8.6151  12.7605  13.1693
    13.8201  14.1250  14.6684  19.9014  20.5345  23.3607  23.4457

          k = 0.1736 0.3472 0.0000 (  2424 PWs)   bands (ev):

   -87.4949 -47.9099 -47.8884 -47.8654   5.0778  10.7337  12.8358  13.0660
    13.6397  13.9866  15.5971  19.4439  20.2555  23.0620  25.9286

          k = 0.1736 0.3472 0.1542 (  2427 PWs)   bands (ev):

   -87.4948 -47.9124 -47.8882 -47.8652   5.4420  10.9563  12.3138  13.2769
    13.6425  13.8865  15.7961  17.9558  19.7385  23.8025  25.3704

          k = 0.1736 0.3472 0.3084 (  2426 PWs)   bands (ev):

   -87.4945 -47.9174 -47.8877 -47.8648   6.4290  11.0425  11.4646  13.3158
    13.6917  13.9741  15.5034  16.7612  20.4233  20.8357  26.1455

          k = 0.1736 0.3472-0.4626 (  2420 PWs)   bands (ev):

   -87.4944 -47.9198 -47.8874 -47.8646   7.2704  10.0121  11.6908  13.2195
    13.9906  14.1186  14.7409  17.2981  19.1786  21.0877  25.0022

          k = 0.1736-0.5208 0.0000 (  2430 PWs)   bands (ev):

   -87.4942 -47.9090 -47.8990 -47.8645   6.9949   8.3552  12.8422  13.2338
    13.3122  14.0436  15.4008  20.8138  22.2142  23.0158  23.8459

          k = 0.1736-0.5208 0.1542 (  2432 PWs)   bands (ev):

   -87.4940 -47.9114 -47.8987 -47.8643   7.2552   8.7428  12.3759  13.2967
    13.7085  13.8922  15.3948  19.5379  21.0706  21.1827  23.4830

          k = 0.1736-0.5208 0.3084 (  2430 PWs)   bands (ev):

   -87.4938 -47.9164 -47.8982 -47.8639   7.9119   9.7637  11.6660  13.1341
    13.8890  14.1769  15.2209  17.2072  18.2105  21.5596  24.5851

          k = 0.1736-0.5208-0.4626 (  2416 PWs)   bands (ev):

   -87.4936 -47.9188 -47.8979 -47.8637   8.3740  10.5729  11.2149  12.7414
    14.2690  14.4116  14.7303  16.3176  17.1108  21.9118  25.3526

          k = 0.3472 0.3472 0.0000 (  2442 PWs)   bands (ev):

   -87.4934 -47.9080 -47.8866 -47.8862   6.5191  11.3648  11.9494  13.2426
    13.5349  13.5884  15.4567  17.4138  21.4407  21.4874  24.8332

          k = 0.3472 0.3472 0.1542 (  2438 PWs)   bands (ev):

   -87.4933 -47.9105 -47.8863 -47.8859   6.8506  11.5262  11.7270  13.0713
    13.7485  13.7981  15.8462  17.3349  19.1109  21.7779  24.7721

          k = 0.3472 0.3472 0.3084 (  2428 PWs)   bands (ev):

   -87.4930 -47.9154 -47.8858 -47.8855   7.7300  11.2791  11.4101  13.5162
    13.9941  14.0601  16.5196  17.0596  17.0983  21.9062  22.3587

          k = 0.3472 0.3472-0.4626 (  2420 PWs)   bands (ev):

   -87.4929 -47.9179 -47.8856 -47.8853   8.4441  10.6916  11.2844  14.0718
    14.0840  14.8492  14.9319  16.7588  18.6293  19.6269  21.4333

          k = 0.3472-0.5208 0.0000 (  2452 PWs)   bands (ev):

   -87.4926 -47.9071 -47.8968 -47.8853   8.0826   9.8635  12.4230  13.1488
    13.3352  13.5361  15.2379  17.9774  19.2787  22.3204  26.1975

          k = 0.3472-0.5208 0.1542 (  2430 PWs)   bands (ev):

   -87.4925 -47.9095 -47.8965 -47.8851   8.3603  10.0862  11.8752  13.2666
    13.8080  13.9117  15.3334  17.7731  19.4978  20.4367  22.8831

          k = 0.3472-0.5208 0.3084 (  2426 PWs)   bands (ev):

   -87.4922 -47.9144 -47.8961 -47.8846   9.0687  10.4745  11.2826  13.7859
    14.0845  14.9750  15.5173  16.6851  18.9791  19.1654  20.6718

          k = 0.3472-0.5208-0.4626 (  2424 PWs)   bands (ev):

   -87.4921 -47.9169 -47.8958 -47.8844   9.5961  10.6184  10.9537  14.1471
    14.7834  15.4542  15.4688  15.9356  17.3149  19.0847  21.0882

          k =-0.5208-0.5208 0.0000 (  2464 PWs)   bands (ev):

   -87.4919 -47.9062 -47.8957 -47.8957   9.0022  11.5815  11.5815  12.4295
    13.3136  13.3136  15.1114  16.9201  17.9107  22.3944  28.5604

          k =-0.5208-0.5208 0.1542 (  2436 PWs)   bands (ev):

   -87.4917 -47.9085 -47.8955 -47.8955   9.3264  11.2190  11.2190  12.8512
    14.0677  14.0677  15.1145  16.5134  17.8404  21.1737  24.2761

          k =-0.5208-0.5208 0.3084 (  2424 PWs)   bands (ev):

   -87.4915 -47.9134 -47.8950 -47.8950  10.1826  10.7871  10.7871  13.9368
    15.1207  15.2570  15.6894  15.6894  17.5473  19.9370  20.8058

          k =-0.5208-0.5208-0.4626 (  2400 PWs)   bands (ev):

   -87.4913 -47.9159 -47.8948 -47.8948  10.6288  10.6288  10.8480  14.3064
    14.7560  15.1238  17.1777  17.5476  17.5476  18.3446  18.3446

     the Fermi energy is    16.5112 ev

!    total energy              =    -344.08412768 Ry
     estimated scf accuracy    <          4.9E-09 Ry
     smearing contrib. (-TS)   =       0.00106142 Ry
     internal energy E=F+TS    =    -344.08518910 Ry

     The total energy is F=E-TS. E is the sum of the following terms:
     one-electron contribution =    -221.47769729 Ry
     hartree contribution      =     123.98511640 Ry
     xc contribution           =     -46.14260738 Ry
     ewald contribution        =    -200.45000083 Ry

     convergence has been achieved in   6 iterations

     Forces acting on atoms (cartesian axes, Ry/au):

     atom    1 type  1   force =     0.00000000    0.00000000    0.00000000
     atom    2 type  2   force =     0.00000000    0.00000000    0.00000000

     Total force =     0.000000     Total SCF correction =     0.000000


     Computing stress (Cartesian axis) and pressure

          total   stress  (Ry/bohr**3)                   (kbar)     P=      -18.88
  -0.00021448   0.00000000   0.00000000          -31.55        0.00        0.00
   0.00000000  -0.00021448   0.00000000            0.00      -31.55        0.00
   0.00000000   0.00000000   0.00004388            0.00        0.00        6.45

     Energy error            =      3.2E-03 Ry
     Gradient error          =      0.0E+00 Ry/Bohr
     Cell gradient error     =      6.5E+00 kbar

     number of scf cycles    =   3
     number of bfgs steps    =   2

     enthalpy           old  =    -344.0809596651 Ry
     enthalpy           new  =    -344.0841276843 Ry

     CASE: enthalpy          _new < enthalpy          _old

     new trust radius        =       0.0057729611 bohr
     new conv_thr            =       0.0000000100 Ry

     new unit-cell volume =    155.64399 a.u.^3 (    23.06406 Ang^3 )
     density =      6.24781 g/cm^3

CELL_PARAMETERS (alat=  5.38176635)
   0.960000000   0.000000000   0.000000000
   0.000000000   0.960000000   0.000000000
   0.000000000   0.000000000   1.083466183

ATOMIC_POSITIONS (crystal)
Si               0.0000000000        0.0000000000        0.0000000000
Ni               0.5000000000        0.5000000000        0.5000000000



     Writing config-only to output data dir ./tmp/SiNi-vc-relax.save/ :
     XML data file
     NEW-OLD atomic charge density approx. for the potential
     New effective cutoffs (rho, wfc):  399.01  100.00

     total cpu time spent up to now is       37.7 secs

     Self-consistent Calculation

     iteration #  1     ecut=   100.00 Ry     beta= 0.70
     Davidson diagonalization with overlap
     ethr =  1.00E-06,  avg # of iterations =  3.0

     Threshold (ethr) on eigenvalues was too large:
     Diagonalizing with lowered threshold

     Davidson diagonalization with overlap
     ethr =  2.21E-08,  avg # of iterations =  2.3

     total cpu time spent up to now is       41.1 secs

     total energy              =    -344.08413292 Ry
     estimated scf accuracy    <       0.00000602 Ry

     iteration #  2     ecut=   100.00 Ry     beta= 0.70
     Davidson diagonalization with overlap
     ethr =  2.74E-08,  avg # of iterations =  2.8

     total cpu time spent up to now is       42.7 secs

     total energy              =    -344.08412800 Ry
     estimated scf accuracy    <       0.00007421 Ry

     iteration #  3     ecut=   100.00 Ry     beta= 0.70
     Davidson diagonalization with overlap
     ethr =  2.74E-08,  avg # of iterations =  2.3

     total cpu time spent up to now is       44.4 secs

     total energy              =    -344.08413694 Ry
     estimated scf accuracy    <       0.00000001 Ry

     iteration #  4     ecut=   100.00 Ry     beta= 0.70
     Davidson diagonalization with overlap
     ethr =  5.42E-11,  avg # of iterations =  4.2

     total cpu time spent up to now is       46.2 secs

     total energy              =    -344.08413695 Ry
     estimated scf accuracy    <       0.00000002 Ry

     iteration #  5     ecut=   100.00 Ry     beta= 0.70
     Davidson diagonalization with overlap
     ethr =  5.42E-11,  avg # of iterations =  1.1

     total cpu time spent up to now is       47.5 secs

     End of self-consistent calculation

          k = 0.0000 0.0000 0.0000 (  2413 PWs)   bands (ev):

   -87.5375 -47.9540 -47.8959 -47.8959   2.4023  12.2767  12.4814  14.1520
    14.1520  14.4866  16.4211  20.2611  20.2611  22.0407  23.4798

          k = 0.0000 0.0000 0.1538 (  2429 PWs)   bands (ev):

   -87.5374 -47.9567 -47.8958 -47.8958   2.8198  11.5607  12.5722  13.9737
    13.9737  14.4995  15.1175  20.8560  20.8560  23.3661  24.5134

          k = 0.0000 0.0000 0.3077 (  2457 PWs)   bands (ev):

   -87.5371 -47.9618 -47.8954 -47.8954   4.0027   9.2597  12.7626  13.6635
    13.6635  14.5254  14.5394  22.3744  22.3744  23.1139  26.9541

          k = 0.0000 0.0000-0.4615 (  2402 PWs)   bands (ev):

   -87.5369 -47.9642 -47.8952 -47.8952   5.1885   7.5062  12.8628  13.5259
    13.5259  14.5363  14.5385  22.9746  23.7725  23.7725  26.2845

          k = 0.0000 0.1736 0.0000 (  2423 PWs)   bands (ev):

   -87.5367 -47.9530 -47.9066 -47.8951   2.9499  12.2217  12.5050  13.5833
    14.1889  14.2269  17.2530  17.4574  20.9661  22.1493  25.0916

          k = 0.0000 0.1736 0.1538 (  2434 PWs)   bands (ev):

   -87.5366 -47.9558 -47.9064 -47.8949   3.3574  11.7993  12.4127  13.4174
    14.0147  14.2672  15.8433  17.7409  21.4964  24.3365  25.6640

          k = 0.0000 0.1736 0.3077 (  2415 PWs)   bands (ev):

   -87.5363 -47.9607 -47.9060 -47.8945   4.5037   9.6919  12.6920  13.2990
    13.7353  14.3117  14.7520  18.8517  22.8358  23.9682  25.7658

          k = 0.0000 0.1736-0.4615 (  2428 PWs)   bands (ev):

   -87.5362 -47.9631 -47.9058 -47.8943   5.6160   8.0607  12.9692  13.1030
    13.6096  14.3328  14.5657  19.7390  22.7330  23.9490  25.5340

          k = 0.0000 0.3472 0.0000 (  2410 PWs)   bands (ev):

   -87.5352 -47.9512 -47.9278 -47.8934   4.5450  10.3470  12.8468  12.9048
    13.7893  14.2634  15.4612  19.5935  22.3536  22.7722  26.2668

          k = 0.0000 0.3472 0.1538 (  2425 PWs)   bands (ev):

   -87.5350 -47.9537 -47.9276 -47.8932   4.9165  10.5911  12.2581  13.0987
    13.8238  14.1417  15.5229  17.4475  23.0060  23.1321  25.3580

          k = 0.0000 0.3472 0.3077 (  2423 PWs)   bands (ev):

   -87.5348 -47.9586 -47.9271 -47.8928   5.9279  10.6805  11.4008  13.1201
    13.8578  13.9521  14.9952  16.6513  20.2437  23.9363  26.7765

          k = 0.0000 0.3472-0.4615 (  2412 PWs)   bands (ev):

   -87.5346 -47.9609 -47.9268 -47.8926   6.7992   9.6153  11.7671  12.9720
    13.7821  13.9580  14.6269  17.1923  18.6936  24.4234  27.3326

          k = 0.0000-0.5208 0.0000 (  2432 PWs)   bands (ev):

   -87.5344 -47.9503 -47.9385 -47.8925   6.5657   7.7923  12.6524  13.0319
    13.5987  14.3011  15.4007  22.0927  22.4828  22.8332  24.6942

          k = 0.0000-0.5208 0.1538 (  2430 PWs)   bands (ev):

   -87.5343 -47.9527 -47.9382 -47.8923   6.8190   8.2108  12.4324  13.0414
    13.6443  14.1872  15.3234  19.1687  20.4132  24.7110  25.5302

          k = 0.0000-0.5208 0.3077 (  2416 PWs)   bands (ev):

   -87.5340 -47.9576 -47.9376 -47.8919   7.4517   9.3723  11.8201  12.8256
    13.7376  13.9726  14.9811  17.1041  17.7872  24.7496  27.7780

          k = 0.0000-0.5208-0.4615 (  2436 PWs)   bands (ev):

   -87.5339 -47.9598 -47.9374 -47.8918   7.8850  10.4916  11.3617  12.1370
    13.7854  13.8711  14.6617  16.4177  16.9946  24.7720  29.1338

          k = 0.1736 0.1736 0.0000 (  2419 PWs)   bands (ev):

   -87.5359 -47.9522 -47.9058 -47.9055   3.4886  12.3791  12.4109  13.4879
    13.9179  13.9345  17.3091  18.2874  18.3826  22.4524  28.4349

          k = 0.1736 0.1736 0.1538 (  2427 PWs)   bands (ev):

   -87.5358 -47.9548 -47.9057 -47.9053   3.8862  11.9734  12.4546  13.3266
    13.7028  13.9734  16.4769  17.8150  18.7409  25.3937  27.6099

          k = 0.1736 0.1736 0.3077 (  2415 PWs)   bands (ev):

   -87.5355 -47.9596 -47.9052 -47.9049   4.9966  10.0932  12.6225  13.3186
    13.5479  14.0557  15.0534  18.9761  19.6636  24.8061  24.9594

          k = 0.1736 0.1736-0.4615 (  2432 PWs)   bands (ev):

   -87.5354 -47.9621 -47.9050 -47.9047   6.0432   8.5835  12.7300  13.1336
    13.7850  14.0908  14.6178  19.8455  20.4795  23.3236  23.4070

          k = 0.1736 0.3472 0.0000 (  2424 PWs)   bands (ev):

   -87.5344 -47.9504 -47.9268 -47.9038   5.0517  10.7082  12.8045  13.0203
    13.6085  13.9460  15.5572  19.4070  20.1723  22.9839  25.8859

          k = 0.1736 0.3472 0.1538 (  2427 PWs)   bands (ev):

   -87.5343 -47.9528 -47.9266 -47.9036   5.4136  10.9290  12.2749  13.2393
    13.6083  13.8498  15.7547  17.8872  19.6987  23.7326  25.3140

          k = 0.1736 0.3472 0.3077 (  2426 PWs)   bands (ev):

   -87.5340 -47.9576 -47.9261 -47.9033   6.3939  11.0052  11.4333  13.2805
    13.6553  13.9393  15.4540  16.7093  20.3757  20.7824  26.0954

          k = 0.1736 0.3472-0.4615 (  2420 PWs)   bands (ev):

   -87.5339 -47.9600 -47.9258 -47.9030   7.2270   9.9816  11.6575  13.1851
    13.9564  14.0816  14.6916  17.2414  19.1372  21.0340  24.9636

          k = 0.1736-0.5208 0.0000 (  2430 PWs)   bands (ev):

   -87.5336 -47.9494 -47.9374 -47.9029   6.9699   8.3281  12.7968  13.2004
    13.2824  14.0031  15.3629  20.7754  22.1322  22.9815  23.7572

          k = 0.1736-0.5208 0.1538 (  2432 PWs)   bands (ev):

   -87.5335 -47.9518 -47.9371 -47.9027   7.2282   8.7136  12.3369  13.2618
    13.6736  13.8537  15.3560  19.4714  21.0293  21.1071  23.4461

          k = 0.1736-0.5208 0.3077 (  2430 PWs)   bands (ev):

   -87.5333 -47.9567 -47.9366 -47.9023   7.8791   9.7287  11.6326  13.0982
    13.8518  14.1413  15.1791  17.1497  18.1533  21.5132  24.5397

          k = 0.1736-0.5208-0.4615 (  2416 PWs)   bands (ev):

   -87.5331 -47.9590 -47.9363 -47.9021   8.3357  10.5326  11.1865  12.7075
    14.2314  14.3769  14.6840  16.2625  17.0646  21.8601  25.3003

          k = 0.3472 0.3472 0.0000 (  2442 PWs)   bands (ev):

   -87.5329 -47.9485 -47.9250 -47.9246   6.4938  11.3393  11.9234  13.1984
    13.4937  13.5574  15.4170  17.3706  21.4032  21.4042  24.7478

          k = 0.3472 0.3472 0.1538 (  2438 PWs)   bands (ev):

   -87.5327 -47.9509 -47.9247 -47.9243   6.8232  11.4983  11.6989  13.0303
    13.7102  13.7647  15.8046  17.2891  19.0435  21.7382  24.6988

          k = 0.3472 0.3472 0.3077 (  2428 PWs)   bands (ev):

   -87.5325 -47.9556 -47.9242 -47.9239   7.6965  11.2474  11.3805  13.4775
    13.9577  14.0249  16.4635  17.0135  17.0504  21.8509  22.3059

          k = 0.3472 0.3472-0.4615 (  2420 PWs)   bands (ev):

   -87.5324 -47.9580 -47.9240 -47.9237   8.4037  10.6636  11.2544  14.0357
    14.0505  14.8065  14.8820  16.7071  18.5690  19.5892  21.3910

          k = 0.3472-0.5208 0.0000 (  2452 PWs)   bands (ev):

   -87.5321 -47.9476 -47.9352 -47.9237   8.0599   9.8359  12.3959  13.1057
    13.3050  13.4946  15.1999  17.9313  19.2434  22.2376  26.1089

          k = 0.3472-0.5208 0.1538 (  2430 PWs)   bands (ev):

   -87.5320 -47.9498 -47.9349 -47.9235   8.3358  10.0569  11.8443  13.2312
    13.7715  13.8721  15.2948  17.7228  19.4602  20.3736  22.8080

          k = 0.3472-0.5208 0.3077 (  2426 PWs)   bands (ev):

   -87.5317 -47.9547 -47.9345 -47.9231   9.0389  10.4423  11.2529  13.7467
    14.0484  14.9336  15.4771  16.6332  18.9281  19.1136  20.6190

          k = 0.3472-0.5208-0.4615 (  2424 PWs)   bands (ev):

   -87.5316 -47.9570 -47.9342 -47.9229   9.5606  10.5853  10.9270  14.1118
    14.7384  15.4021  15.4240  15.8993  17.2724  19.0257  21.0336

          k =-0.5208-0.5208 0.0000 (  2464 PWs)   bands (ev):

   -87.5313 -47.9467 -47.9341 -47.9341   8.9825  11.5544  11.5544  12.3998
    13.2718  13.2718  15.0743  16.8695  17.8746  22.3111  28.4777

          k =-0.5208-0.5208 0.1538 (  2436 PWs)   bands (ev):

   -87.5312 -47.9489 -47.9339 -47.9339   9.3054  11.1900  11.1900  12.8189
    14.0272  14.0272  15.0773  16.4594  17.8031  21.1107  24.2045

          k =-0.5208-0.5208 0.3077 (  2424 PWs)   bands (ev):

   -87.5310 -47.9537 -47.9334 -47.9334  10.1582  10.7571  10.7571  13.8974
    15.0833  15.2004  15.6479  15.6479  17.5067  19.8932  20.7462

          k =-0.5208-0.5208-0.4615 (  2400 PWs)   bands (ev):

   -87.5308 -47.9561 -47.9332 -47.9332  10.5987  10.5987  10.8221  14.2511
    14.7110  15.0863  17.1357  17.5116  17.5116  18.2831  18.2831

     the Fermi energy is    16.4545 ev

!    total energy              =    -344.08413695 Ry
     estimated scf accuracy    <          3.1E-09 Ry
     smearing contrib. (-TS)   =       0.00114320 Ry
     internal energy E=F+TS    =    -344.08528015 Ry

     The total energy is F=E-TS. E is the sum of the following terms:
     one-electron contribution =    -221.77124727 Ry
     hartree contribution      =     124.10087504 Ry
     xc contribution           =     -46.13951327 Ry
     ewald contribution        =    -200.27539466 Ry

     convergence has been achieved in   5 iterations

     Forces acting on atoms (cartesian axes, Ry/au):

     atom    1 type  1   force =     0.00000000    0.00000000    0.00000000
     atom    2 type  2   force =     0.00000000    0.00000000    0.00000000

     Total force =     0.000000     Total SCF correction =     0.000000


     Computing stress (Cartesian axis) and pressure

          total   stress  (Ry/bohr**3)                   (kbar)     P=      -22.90
  -0.00023734   0.00000000   0.00000000          -34.91        0.00        0.00
   0.00000000  -0.00023734   0.00000000            0.00      -34.91        0.00
   0.00000000   0.00000000   0.00000761            0.00        0.00        1.12

     Energy error            =      9.3E-06 Ry
     Gradient error          =      0.0E+00 Ry/Bohr
     Cell gradient error     =      1.1E+00 kbar

     number of scf cycles    =   4
     number of bfgs steps    =   3

     enthalpy           old  =    -344.0841276843 Ry
     enthalpy           new  =    -344.0841369510 Ry

     CASE: enthalpy          _new < enthalpy          _old

     new trust radius        =       0.0012097901 bohr
     new conv_thr            =       0.0000000100 Ry

     new unit-cell volume =    155.71945 a.u.^3 (    23.07524 Ang^3 )
     density =      6.24478 g/cm^3

CELL_PARAMETERS (alat=  5.38176635)
   0.960000000   0.000000000   0.000000000
   0.000000000   0.960000000   0.000000000
   0.000000000   0.000000000   1.083991509

ATOMIC_POSITIONS (crystal)
Si               0.0000000000        0.0000000000        0.0000000000
Ni               0.5000000000        0.5000000000        0.5000000000



     Writing config-only to output data dir ./tmp/SiNi-vc-relax.save/ :
     XML data file
     NEW-OLD atomic charge density approx. for the potential
     New effective cutoffs (rho, wfc):  399.01  100.00

     total cpu time spent up to now is       48.7 secs

     Self-consistent Calculation

     iteration #  1     ecut=   100.00 Ry     beta= 0.70
     Davidson diagonalization with overlap
     ethr =  1.00E-06,  avg # of iterations =  2.0

     Threshold (ethr) on eigenvalues was too large:
     Diagonalizing with lowered threshold

     Davidson diagonalization with overlap
     ethr =  1.20E-10,  avg # of iterations =  4.8

     total cpu time spent up to now is       52.4 secs

     total energy              =    -344.08413695 Ry
     estimated scf accuracy    <       0.00000003 Ry

     iteration #  2     ecut=   100.00 Ry     beta= 0.70
     Davidson diagonalization with overlap
     ethr =  1.48E-10,  avg # of iterations =  2.4

     total cpu time spent up to now is       54.0 secs

     total energy              =    -344.08413693 Ry
     estimated scf accuracy    <       0.00000027 Ry

     iteration #  3     ecut=   100.00 Ry     beta= 0.70
     Davidson diagonalization with overlap
     ethr =  1.48E-10,  avg # of iterations =  2.2

     total cpu time spent up to now is       55.5 secs

     End of self-consistent calculation

          k = 0.0000 0.0000 0.0000 (  2413 PWs)   bands (ev):

   -87.5455 -47.9624 -47.9038 -47.9038   2.3969  12.2693  12.4750  14.1438
    14.1438  14.4794  16.4024  20.2555  20.2555  22.0229  23.4705

          k = 0.0000 0.0000 0.1538 (  2429 PWs)   bands (ev):

   -87.5454 -47.9651 -47.9036 -47.9036   2.8138  11.5517  12.5655  13.9660
    13.9660  14.4923  15.1033  20.8495  20.8495  23.3568  24.4951

          k = 0.0000 0.0000 0.3075 (  2457 PWs)   bands (ev):

   -87.5452 -47.9700 -47.9033 -47.9033   3.9951   9.2505  12.7555  13.6566
    13.6566  14.5181  14.5283  22.3659  22.3659  23.1049  26.9420

          k = 0.0000 0.0000-0.4613 (  2402 PWs)   bands (ev):

   -87.5450 -47.9724 -47.9031 -47.9031   5.1784   7.4995  12.8554  13.5192
    13.5192  14.5255  14.5311  22.9657  23.7609  23.7609  26.2780

          k = 0.0000 0.1736 0.0000 (  2423 PWs)   bands (ev):

   -87.5448 -47.9614 -47.9145 -47.9029   2.9444  12.2155  12.4980  13.5739
    14.1806  14.2200  17.2456  17.4399  20.9600  22.1320  25.0818

          k = 0.0000 0.1736 0.1538 (  2434 PWs)   bands (ev):

   -87.5447 -47.9641 -47.9143 -47.9028   3.3514  11.7905  12.4064  13.4089
    14.0071  14.2601  15.8298  17.7326  21.4895  24.3244  25.6462

          k = 0.0000 0.1736 0.3075 (  2415 PWs)   bands (ev):

   -87.5444 -47.9689 -47.9138 -47.9024   4.4961   9.6830  12.6853  13.2914
    13.7283  14.3045  14.7412  18.8420  22.8270  23.9589  25.7548

          k = 0.0000 0.1736-0.4613 (  2428 PWs)   bands (ev):

   -87.5442 -47.9713 -47.9137 -47.9022   5.6061   8.0541  12.9617  13.0963
    13.6028  14.3256  14.5551  19.7274  22.7252  23.9378  25.5239

          k = 0.0000 0.3472 0.0000 (  2410 PWs)   bands (ev):

   -87.5432 -47.9596 -47.9357 -47.9012   4.5394  10.3417  12.8396  12.8951
    13.7828  14.2552  15.4530  19.5761  22.3386  22.7652  26.2549

          k = 0.0000 0.3472 0.1538 (  2425 PWs)   bands (ev):

   -87.5431 -47.9620 -47.9355 -47.9011   4.9105  10.5853  12.2493  13.0907
    13.8172  14.1339  15.5143  17.4332  22.9923  23.1244  25.3431

          k = 0.0000 0.3472 0.3075 (  2423 PWs)   bands (ev):

   -87.5428 -47.9669 -47.9350 -47.9007   5.9205  10.6726  11.3938  13.1124
    13.8508  13.9450  14.9850  16.6405  20.2323  23.9272  26.7664

          k = 0.0000 0.3472-0.4613 (  2412 PWs)   bands (ev):

   -87.5427 -47.9692 -47.9347 -47.9005   6.7899   9.6087  11.7594  12.9648
    13.7753  13.9509  14.6168  17.1803  18.6848  24.4132  27.3216

          k = 0.0000-0.5208 0.0000 (  2432 PWs)   bands (ev):

   -87.5425 -47.9587 -47.9463 -47.9004   6.5603   7.7867  12.6427  13.0247
    13.5924  14.2929  15.3928  22.0757  22.4695  22.8146  24.6857

          k = 0.0000-0.5208 0.1538 (  2430 PWs)   bands (ev):

   -87.5423 -47.9610 -47.9460 -47.9002   6.8132   8.2047  12.4233  13.0339
    13.6378  14.1794  15.3153  19.1549  20.3974  24.7023  25.5176

          k = 0.0000-0.5208 0.3075 (  2416 PWs)   bands (ev):

   -87.5421 -47.9659 -47.9455 -47.8998   7.4446   9.3649  11.8126  12.8178
    13.7308  13.9654  14.9719  17.0919  17.7754  24.7405  27.7677

          k = 0.0000-0.5208-0.4613 (  2436 PWs)   bands (ev):

   -87.5419 -47.9681 -47.9452 -47.8997   7.8768  10.4824  11.3555  12.1299
    13.7785  13.8642  14.6520  16.4060  16.9849  24.7627  29.1210

          k = 0.1736 0.1736 0.0000 (  2419 PWs)   bands (ev):

   -87.5440 -47.9605 -47.9137 -47.9134   3.4831  12.3732  12.4042  13.4783
    13.9113  13.9262  17.3012  18.2701  18.3754  22.4341  28.4277

          k = 0.1736 0.1736 0.1538 (  2427 PWs)   bands (ev):

   -87.5439 -47.9631 -47.9135 -47.9132   3.8802  11.9650  12.4485  13.3182
    13.6949  13.9665  16.4633  17.8065  18.7329  25.3729  27.5989

          k = 0.1736 0.1736 0.3075 (  2415 PWs)   bands (ev):

   -87.5436 -47.9679 -47.9131 -47.9128   4.9891  10.0845  12.6162  13.3112
    13.5403  14.0487  15.0427  18.9661  19.6542  24.7962  24.9484

          k = 0.1736 0.1736-0.4613 (  2432 PWs)   bands (ev):

   -87.5435 -47.9703 -47.9129 -47.9126   6.0335   8.5769  12.7237  13.1261
    13.7777  14.0837  14.6073  19.8339  20.4681  23.3159  23.3990

          k = 0.1736 0.3472 0.0000 (  2424 PWs)   bands (ev):

   -87.5425 -47.9587 -47.9347 -47.9117   5.0462  10.7029  12.7980  13.0108
    13.6020  13.9375  15.5489  19.3993  20.1550  22.9675  25.8770

          k = 0.1736 0.3472 0.1538 (  2427 PWs)   bands (ev):

   -87.5423 -47.9611 -47.9344 -47.9115   5.4077  10.9233  12.2667  13.2315
    13.6012  13.8422  15.7461  17.8729  19.6904  23.7180  25.3021

          k = 0.1736 0.3472 0.3075 (  2426 PWs)   bands (ev):

   -87.5421 -47.9659 -47.9340 -47.9111   6.3866  10.9974  11.4267  13.2731
    13.6477  13.9320  15.4437  16.6985  20.3658  20.7713  26.0849

          k = 0.1736 0.3472-0.4613 (  2420 PWs)   bands (ev):

   -87.5419 -47.9682 -47.9337 -47.9109   7.2179   9.9752  11.6506  13.1780
    13.9493  14.0739  14.6813  17.2296  19.1286  21.0228  24.9556

          k = 0.1736-0.5208 0.0000 (  2430 PWs)   bands (ev):

   -87.5417 -47.9578 -47.9452 -47.9108   6.9647   8.3224  12.7873  13.1934
    13.2762  13.9947  15.3550  20.7674  22.1152  22.9744  23.7387

          k = 0.1736-0.5208 0.1538 (  2432 PWs)   bands (ev):

   -87.5416 -47.9601 -47.9450 -47.9106   7.2226   8.7075  12.3288  13.2546
    13.6663  13.8457  15.3480  19.4575  21.0207  21.0914  23.4384

          k = 0.1736-0.5208 0.3075 (  2430 PWs)   bands (ev):

   -87.5413 -47.9650 -47.9445 -47.9102   7.8722   9.7214  11.6256  13.0907
    13.8441  14.1338  15.1703  17.1378  18.1413  21.5035  24.5302

          k = 0.1736-0.5208-0.4613 (  2416 PWs)   bands (ev):

   -87.5412 -47.9672 -47.9442 -47.9100   8.3277  10.5242  11.1806  12.7005
    14.2236  14.3697  14.6744  16.2510  17.0550  21.8493  25.2894

          k = 0.3472 0.3472 0.0000 (  2442 PWs)   bands (ev):

   -87.5409 -47.9568 -47.9328 -47.9325   6.4884  11.3340  11.9179  13.1892
    13.4852  13.5509  15.4088  17.3616  21.3868  21.3953  24.7299

          k = 0.3472 0.3472 0.1538 (  2438 PWs)   bands (ev):

   -87.5408 -47.9592 -47.9326 -47.9322   6.8175  11.4925  11.6930  13.0218
    13.7022  13.7578  15.7960  17.2795  19.0295  21.7299  24.6835

          k = 0.3472 0.3472 0.3075 (  2428 PWs)   bands (ev):

   -87.5406 -47.9639 -47.9321 -47.9318   7.6895  11.2408  11.3743  13.4695
    13.9501  14.0175  16.4518  17.0038  17.0405  21.8394  22.2949

          k = 0.3472 0.3472-0.4613 (  2420 PWs)   bands (ev):

   -87.5404 -47.9663 -47.9319 -47.9316   8.3952  10.6578  11.2482  14.0282
    14.0436  14.7976  14.8716  16.6963  18.5564  19.5813  21.3822

          k = 0.3472-0.5208 0.0000 (  2452 PWs)   bands (ev):

   -87.5402 -47.9559 -47.9431 -47.9316   8.0552   9.8301  12.3902  13.0968
    13.2987  13.4860  15.1920  17.9217  19.2360  22.2204  26.0904

          k = 0.3472-0.5208 0.1538 (  2430 PWs)   bands (ev):

   -87.5400 -47.9582 -47.9428 -47.9314   8.3307  10.0508  11.8379  13.2238
    13.7639  13.8639  15.2868  17.7123  19.4524  20.3605  22.7924

          k = 0.3472-0.5208 0.3075 (  2426 PWs)   bands (ev):

   -87.5398 -47.9629 -47.9423 -47.9309   9.0326  10.4356  11.2467  13.7386
    14.0409  14.9250  15.4687  16.6224  18.9174  19.1028  20.6080

          k = 0.3472-0.5208-0.4613 (  2424 PWs)   bands (ev):

   -87.5397 -47.9653 -47.9421 -47.9307   9.5532  10.5783  10.9215  14.1045
    14.7290  15.3912  15.4146  15.8917  17.2635  19.0134  21.0222

          k =-0.5208-0.5208 0.0000 (  2464 PWs)   bands (ev):

   -87.5394 -47.9550 -47.9420 -47.9420   8.9785  11.5487  11.5487  12.3936
    13.2631  13.2631  15.0665  16.8590  17.8670  22.2938  28.4602

          k =-0.5208-0.5208 0.1538 (  2436 PWs)   bands (ev):

   -87.5393 -47.9572 -47.9418 -47.9418   9.3010  11.1839  11.1839  12.8121
    14.0188  14.0188  15.0696  16.4481  17.7953  21.0975  24.1895

          k =-0.5208-0.5208 0.3075 (  2424 PWs)   bands (ev):

   -87.5390 -47.9620 -47.9413 -47.9413  10.1532  10.7508  10.7508  13.8892
    15.0756  15.1886  15.6393  15.6393  17.4982  19.8841  20.7338

          k =-0.5208-0.5208-0.4613 (  2400 PWs)   bands (ev):

   -87.5389 -47.9643 -47.9411 -47.9411  10.5924  10.5924  10.8166  14.2395
    14.7017  15.0786  17.1269  17.5041  17.5041  18.2703  18.2703

     the Fermi energy is    16.4426 ev

!    total energy              =    -344.08413696 Ry
     estimated scf accuracy    <          1.8E-09 Ry
     smearing contrib. (-TS)   =       0.00116023 Ry
     internal energy E=F+TS    =    -344.08529720 Ry

     The total energy is F=E-TS. E is the sum of the following terms:
     one-electron contribution =    -221.83211106 Ry
     hartree contribution      =     124.12436394 Ry
     xc contribution           =     -46.13876760 Ry
     ewald contribution        =    -200.23878248 Ry

     convergence has been achieved in   3 iterations

     Forces acting on atoms (cartesian axes, Ry/au):

     atom    1 type  1   force =     0.00000000    0.00000000    0.00000000
     atom    2 type  2   force =     0.00000000    0.00000000    0.00000000

     Total force =     0.000000     Total SCF correction =     0.000000


     Computing stress (Cartesian axis) and pressure

          total   stress  (Ry/bohr**3)                   (kbar)     P=      -24.20
  -0.00024519   0.00000000   0.00000000          -36.07        0.00        0.00
   0.00000000  -0.00024519   0.00000000            0.00      -36.07        0.00
   0.00000000   0.00000000  -0.00000324            0.00        0.00       -0.48

     Energy error            =      1.4E-08 Ry
     Gradient error          =      0.0E+00 Ry/Bohr
     Cell gradient error     =      4.8E-01 kbar

     bfgs converged in   5 scf cycles and   4 bfgs steps
     (criteria: energy <  1.0E-04 Ry, force <  1.0E-03 Ry/Bohr, cell <  5.0E-01 kbar)

     End of BFGS Geometry Optimization

     Final enthalpy           =    -344.0841369646 Ry

     File ./tmp/SiNi-vc-relax.bfgs deleted, as requested
Begin final coordinates
     new unit-cell volume =    155.71945 a.u.^3 (    23.07524 Ang^3 )
     density =      6.24478 g/cm^3

CELL_PARAMETERS (alat=  5.38176635)
   0.960000000   0.000000000   0.000000000
   0.000000000   0.960000000   0.000000000
   0.000000000   0.000000000   1.083991509

ATOMIC_POSITIONS (crystal)
Si               0.0000000000        0.0000000000        0.0000000000
Ni               0.5000000000        0.5000000000        0.5000000000
End final coordinates



     Writing config-only to output data dir ./tmp/SiNi-vc-relax.save/ :
     XML data file

     Final scf calculation at the relaxed structure.
     The G-vectors are recalculated for the final unit cell
     Results may differ from those at the preceding step.

     G-vector sticks info
     --------------------
     sticks:   dense  smooth     PW     G-vecs:    dense   smooth      PW
     Sum         853     853    261                21057    21057    3521

     Using Slab Decomposition



     bravais-lattice index     =            0
     lattice parameter (alat)  =       5.3818  a.u.
     unit-cell volume          =     155.7195 (a.u.)^3
     number of atoms/cell      =            2
     number of atomic types    =            2
     number of electrons       =        22.00
     number of Kohn-Sham states=           15
     kinetic-energy cutoff     =     100.0000  Ry
     charge density cutoff     =     400.0000  Ry
     scf convergence threshold =      1.0E-08
     mixing beta               =       0.7000
     number of iterations used =            8  plain     mixing
     press convergence thresh. =      5.0E-01
     Exchange-correlation= PBE
                           (   1   4   3   4   0   0   0)

     celldm(1)=   5.381766  celldm(2)=   0.000000  celldm(3)=   0.000000
     celldm(4)=   0.000000  celldm(5)=   0.000000  celldm(6)=   0.000000

     crystal axes: (cart. coord. in units of alat)
               a(1) = (   0.960000   0.000000   0.000000 )  
               a(2) = (   0.000000   0.960000   0.000000 )  
               a(3) = (   0.000000   0.000000   1.083992 )  

     reciprocal axes: (cart. coord. in units 2 pi/alat)
               b(1) = (  1.041667  0.000000  0.000000 )  
               b(2) = (  0.000000  1.041667  0.000000 )  
               b(3) = (  0.000000  0.000000  0.922516 )  


     PseudoPot. # 1 for Si read from file:
     ./PSEUDO/Si.upf
     MD5 check sum: 02fab3f35e82123ef5bf1cb05d5b1a5e
     Pseudo is Norm-conserving + core correction, Zval =  4.0
     Generated using ONCVPSP code by D. R. Hamann
     Using radial grid of 1510 points,  6 beta functions with: 
                l(1) =   0
                l(2) =   0
                l(3) =   1
                l(4) =   1
                l(5) =   2
                l(6) =   2

     PseudoPot. # 2 for Ni read from file:
     ./PSEUDO/Ni.upf
     MD5 check sum: 2b0a79d100e227970886d6963e34175b
     Pseudo is Norm-conserving + core correction, Zval = 18.0
     Generated using ONCVPSP code by D. R. Hamann
     Using radial grid of 1372 points,  6 beta functions with: 
                l(1) =   0
                l(2) =   0
                l(3) =   1
                l(4) =   1
                l(5) =   2
                l(6) =   2

     atomic species   valence    mass     pseudopotential
     Si                4.00    28.08550     Si( 1.00)
     Ni               18.00    58.69340     Ni( 1.00)

     16 Sym. Ops., with inversion, found



   Cartesian axes

     site n.     atom                  positions (alat units)
         1        Si     tau(   1) = (   0.0000000   0.0000000   0.0000000  )
         2        Ni     tau(   2) = (   0.4800000   0.4800000   0.5419958  )

     number of k points=    40  Methfessel-Paxton smearing, width (Ry)=  0.0400
                       cart. coord. in units 2pi/alat
        k(    1) = (   0.0000000   0.0000000   0.0000000), wk =   0.0092593
        k(    2) = (   0.0000000   0.0000000   0.1537527), wk =   0.0185185
        k(    3) = (   0.0000000   0.0000000   0.3075055), wk =   0.0185185
        k(    4) = (   0.0000000   0.0000000  -0.4612582), wk =   0.0092593
        k(    5) = (   0.0000000   0.1736111   0.0000000), wk =   0.0370370
        k(    6) = (   0.0000000   0.1736111   0.1537527), wk =   0.0740741
        k(    7) = (   0.0000000   0.1736111   0.3075055), wk =   0.0740741
        k(    8) = (   0.0000000   0.1736111  -0.4612582), wk =   0.0370370
        k(    9) = (   0.0000000   0.3472222   0.0000000), wk =   0.0370370
        k(   10) = (   0.0000000   0.3472222   0.1537527), wk =   0.0740741
        k(   11) = (   0.0000000   0.3472222   0.3075055), wk =   0.0740741
        k(   12) = (   0.0000000   0.3472222  -0.4612582), wk =   0.0370370
        k(   13) = (   0.0000000  -0.5208333   0.0000000), wk =   0.0185185
        k(   14) = (   0.0000000  -0.5208333   0.1537527), wk =   0.0370370
        k(   15) = (   0.0000000  -0.5208333   0.3075055), wk =   0.0370370
        k(   16) = (   0.0000000  -0.5208333  -0.4612582), wk =   0.0185185
        k(   17) = (   0.1736111   0.1736111   0.0000000), wk =   0.0370370
        k(   18) = (   0.1736111   0.1736111   0.1537527), wk =   0.0740741
        k(   19) = (   0.1736111   0.1736111   0.3075055), wk =   0.0740741
        k(   20) = (   0.1736111   0.1736111  -0.4612582), wk =   0.0370370
        k(   21) = (   0.1736111   0.3472222   0.0000000), wk =   0.0740741
        k(   22) = (   0.1736111   0.3472222   0.1537527), wk =   0.1481481
        k(   23) = (   0.1736111   0.3472222   0.3075055), wk =   0.1481481
        k(   24) = (   0.1736111   0.3472222  -0.4612582), wk =   0.0740741
        k(   25) = (   0.1736111  -0.5208333   0.0000000), wk =   0.0370370
        k(   26) = (   0.1736111  -0.5208333   0.1537527), wk =   0.0740741
        k(   27) = (   0.1736111  -0.5208333   0.3075055), wk =   0.0740741
        k(   28) = (   0.1736111  -0.5208333  -0.4612582), wk =   0.0370370
        k(   29) = (   0.3472222   0.3472222   0.0000000), wk =   0.0370370
        k(   30) = (   0.3472222   0.3472222   0.1537527), wk =   0.0740741
        k(   31) = (   0.3472222   0.3472222   0.3075055), wk =   0.0740741
        k(   32) = (   0.3472222   0.3472222  -0.4612582), wk =   0.0370370
        k(   33) = (   0.3472222  -0.5208333   0.0000000), wk =   0.0370370
        k(   34) = (   0.3472222  -0.5208333   0.1537527), wk =   0.0740741
        k(   35) = (   0.3472222  -0.5208333   0.3075055), wk =   0.0740741
        k(   36) = (   0.3472222  -0.5208333  -0.4612582), wk =   0.0370370
        k(   37) = (  -0.5208333  -0.5208333   0.0000000), wk =   0.0092593
        k(   38) = (  -0.5208333  -0.5208333   0.1537527), wk =   0.0185185
        k(   39) = (  -0.5208333  -0.5208333   0.3075055), wk =   0.0185185
        k(   40) = (  -0.5208333  -0.5208333  -0.4612582), wk =   0.0092593

     Dense  grid:    21057 G-vectors     FFT dimensions: (  36,  36,  40)

     Estimated max dynamical RAM per process >      48.26 MB

     Initial potential from superposition of free atoms

     starting charge      21.9992, renormalised to      22.0000
     Starting wfcs are   14 randomized atomic wfcs +    1 random wfcs

     total cpu time spent up to now is       57.3 secs

     Self-consistent Calculation

     iteration #  1     ecut=   100.00 Ry     beta= 0.70
     Davidson diagonalization with overlap
     ethr =  1.00E-06,  avg # of iterations = 11.8

     total cpu time spent up to now is       62.0 secs

     total energy              =    -343.94988752 Ry
     estimated scf accuracy    <       0.21389401 Ry

     iteration #  2     ecut=   100.00 Ry     beta= 0.70
     Davidson diagonalization with overlap
     ethr =  9.72E-04,  avg # of iterations =  2.8

     total cpu time spent up to now is       64.0 secs

     total energy              =    -343.69861646 Ry
     estimated scf accuracy    <       3.05364450 Ry

     iteration #  3     ecut=   100.00 Ry     beta= 0.70
     Davidson diagonalization with overlap
     ethr =  9.72E-04,  avg # of iterations =  2.7

     total cpu time spent up to now is       65.9 secs

     total energy              =    -344.08296583 Ry
     estimated scf accuracy    <       0.01019358 Ry

     iteration #  4     ecut=   100.00 Ry     beta= 0.70
     Davidson diagonalization with overlap
     ethr =  4.63E-05,  avg # of iterations =  1.8

     total cpu time spent up to now is       67.4 secs

     total energy              =    -344.08427811 Ry
     estimated scf accuracy    <       0.00043482 Ry

     iteration #  5     ecut=   100.00 Ry     beta= 0.70
     Davidson diagonalization with overlap
     ethr =  1.98E-06,  avg # of iterations =  2.1

     total cpu time spent up to now is       69.1 secs

     total energy              =    -344.08431546 Ry
     estimated scf accuracy    <       0.00005244 Ry

     iteration #  6     ecut=   100.00 Ry     beta= 0.70
     Davidson diagonalization with overlap
     ethr =  2.38E-07,  avg # of iterations =  2.0

     total cpu time spent up to now is       70.7 secs

     total energy              =    -344.08432662 Ry
     estimated scf accuracy    <       0.00001368 Ry

     iteration #  7     ecut=   100.00 Ry     beta= 0.70
     Davidson diagonalization with overlap
     ethr =  6.22E-08,  avg # of iterations =  1.2

     total cpu time spent up to now is       72.1 secs

     total energy              =    -344.08432775 Ry
     estimated scf accuracy    <       0.00000043 Ry

     iteration #  8     ecut=   100.00 Ry     beta= 0.70
     Davidson diagonalization with overlap
     ethr =  1.94E-09,  avg # of iterations =  2.9

     total cpu time spent up to now is       73.8 secs

     total energy              =    -344.08432789 Ry
     estimated scf accuracy    <       0.00000006 Ry

     iteration #  9     ecut=   100.00 Ry     beta= 0.70
     Davidson diagonalization with overlap
     ethr =  2.66E-10,  avg # of iterations =  1.3

     total cpu time spent up to now is       75.2 secs

     total energy              =    -344.08432789 Ry
     estimated scf accuracy    <       0.00000002 Ry

     iteration # 10     ecut=   100.00 Ry     beta= 0.70
     Davidson diagonalization with overlap
     ethr =  8.71E-11,  avg # of iterations =  2.0

     total cpu time spent up to now is       76.9 secs

     End of self-consistent calculation

          k = 0.0000 0.0000 0.0000 (  2623 PWs)   bands (ev):

   -87.5435 -47.9624 -47.9020 -47.9020   2.3969  12.2689  12.4756  14.1436
    14.1436  14.4803  16.4024  20.2555  20.2555  22.0228  23.4707

          k = 0.0000 0.0000 0.1538 (  2623 PWs)   bands (ev):

   -87.5434 -47.9650 -47.9018 -47.9018   2.8138  11.5515  12.5662  13.9659
    13.9659  14.4932  15.1032  20.8495  20.8495  23.3570  24.4950

          k = 0.0000 0.0000 0.3075 (  2646 PWs)   bands (ev):

   -87.5432 -47.9702 -47.9015 -47.9015   3.9951   9.2504  12.7562  13.6565
    13.6565  14.5190  14.5278  22.3659  22.3659  23.1049  26.9418

          k = 0.0000 0.0000-0.4613 (  2634 PWs)   bands (ev):

   -87.5431 -47.9727 -47.9013 -47.9013   5.1784   7.4994  12.8561  13.5190
    13.5190  14.5248  14.5320  22.9657  23.7607  23.7607  26.2781

          k = 0.0000 0.1736 0.0000 (  2643 PWs)   bands (ev):

   -87.5428 -47.9615 -47.9126 -47.9011   2.9444  12.2156  12.4980  13.5738
    14.1805  14.2208  17.2457  17.4398  20.9601  22.1318  25.0818

          k = 0.0000 0.1736 0.1538 (  2637 PWs)   bands (ev):

   -87.5426 -47.9640 -47.9124 -47.9010   3.3514  11.7903  12.4070  13.4089
    14.0070  14.2610  15.8297  17.7327  21.4896  24.3243  25.6462

          k = 0.0000 0.1736 0.3075 (  2624 PWs)   bands (ev):

   -87.5424 -47.9691 -47.9120 -47.9006   4.4961   9.6829  12.6858  13.2915
    13.7282  14.3054  14.7406  18.8419  22.8270  23.9589  25.7548

          k = 0.0000 0.1736-0.4613 (  2630 PWs)   bands (ev):

   -87.5423 -47.9717 -47.9118 -47.9004   5.6060   8.0540  12.9625  13.0962
    13.6027  14.3265  14.5541  19.7274  22.7253  23.9377  25.5238

          k = 0.0000 0.3472 0.0000 (  2634 PWs)   bands (ev):

   -87.5412 -47.9596 -47.9339 -47.8994   4.5395  10.3418  12.8396  12.8950
    13.7836  14.2550  15.4533  19.5760  22.3385  22.7653  26.0404

          k = 0.0000 0.3472 0.1538 (  2620 PWs)   bands (ev):

   -87.5411 -47.9621 -47.9337 -47.8993   4.9105  10.5854  12.2492  13.0908
    13.8180  14.1338  15.5145  17.4332  22.9923  23.1245  25.3431

          k = 0.0000 0.3472 0.3075 (  2618 PWs)   bands (ev):

   -87.5409 -47.9671 -47.9332 -47.8989   5.9205  10.6726  11.3938  13.1127
    13.8511  13.9454  14.9846  16.6405  20.2324  23.9272  26.7663

          k = 0.0000 0.3472-0.4613 (  2624 PWs)   bands (ev):

   -87.5407 -47.9695 -47.9329 -47.8987   6.7899   9.6087  11.7593  12.9654
    13.7751  13.9518  14.6158  17.1802  18.6851  24.4131  27.3216

          k = 0.0000-0.5208 0.0000 (  2628 PWs)   bands (ev):

   -87.5404 -47.9587 -47.9445 -47.8986   6.5603   7.7867  12.6427  13.0246
    13.5931  14.2927  15.3932  22.0756  22.4695  22.8145  24.6858

          k = 0.0000-0.5208 0.1538 (  2634 PWs)   bands (ev):

   -87.5403 -47.9611 -47.9442 -47.8984   6.8132   8.2048  12.4232  13.0338
    13.6386  14.1792  15.3155  19.1549  20.3974  24.7024  25.5176

          k = 0.0000-0.5208 0.3075 (  2630 PWs)   bands (ev):

   -87.5401 -47.9660 -47.9437 -47.8980   7.4446   9.3649  11.8126  12.8179
    13.7317  13.9653  14.9717  17.0919  17.7757  24.7406  27.7677

          k = 0.0000-0.5208-0.4613 (  2640 PWs)   bands (ev):

   -87.5400 -47.9685 -47.9434 -47.8979   7.8768  10.4823  11.3556  12.1301
    13.7793  13.8640  14.6510  16.4059  16.9854  24.7627  29.1210

          k = 0.1736 0.1736 0.0000 (  2623 PWs)   bands (ev):

   -87.5420 -47.9606 -47.9119 -47.9115   3.4831  12.3737  12.4039  13.4781
    13.9119  13.9261  17.3015  18.2701  18.3754  22.4341  28.4278

          k = 0.1736 0.1736 0.1538 (  2621 PWs)   bands (ev):

   -87.5419 -47.9631 -47.9117 -47.9114   3.8802  11.9648  12.4490  13.3181
    13.6949  13.9672  16.4632  17.8067  18.7329  25.3729  27.5990

          k = 0.1736 0.1736 0.3075 (  2630 PWs)   bands (ev):

   -87.5416 -47.9681 -47.9113 -47.9110   4.9890  10.0844  12.6165  13.3115
    13.5401  14.0493  15.0423  18.9662  19.6541  24.7963  24.9484

          k = 0.1736 0.1736-0.4613 (  2626 PWs)   bands (ev):

   -87.5415 -47.9706 -47.9111 -47.9108   6.0335   8.5769  12.7236  13.1269
    13.7776  14.0844  14.6065  19.8338  20.4680  23.3162  23.3990

          k = 0.1736 0.3472 0.0000 (  2636 PWs)   bands (ev):

   -87.5405 -47.9587 -47.9329 -47.9099   5.0462  10.7030  12.7981  13.0107
    13.6024  13.9374  15.5494  19.3994  20.1549  22.9676  25.8770

          k = 0.1736 0.3472 0.1538 (  2631 PWs)   bands (ev):

   -87.5403 -47.9611 -47.9326 -47.9097   5.4077  10.9234  12.2667  13.2316
    13.6015  13.8423  15.7464  17.8728  19.6905  23.7181  25.3021

          k = 0.1736 0.3472 0.3075 (  2626 PWs)   bands (ev):

   -87.5401 -47.9661 -47.9322 -47.9093   6.3866  10.9974  11.4267  13.2735
    13.6478  13.9323  15.4435  16.6986  20.3659  20.7714  26.0852

          k = 0.1736 0.3472-0.4613 (  2632 PWs)   bands (ev):

   -87.5400 -47.9685 -47.9319 -47.9091   7.2179   9.9752  11.6505  13.1786
    13.9500  14.0738  14.6805  17.2295  19.1289  21.0227  24.9557

          k = 0.1736-0.5208 0.0000 (  2642 PWs)   bands (ev):

   -87.5397 -47.9577 -47.9434 -47.9090   6.9647   8.3225  12.7873  13.1934
    13.2769  13.9946  15.3555  20.7676  22.1151  22.9743  23.7386

          k = 0.1736-0.5208 0.1538 (  2632 PWs)   bands (ev):

   -87.5396 -47.9602 -47.9432 -47.9088   7.2226   8.7075  12.3289  13.2545
    13.6668  13.8456  15.3483  19.4575  21.0209  21.0914  23.4383

          k = 0.1736-0.5208 0.3075 (  2624 PWs)   bands (ev):

   -87.5393 -47.9650 -47.9426 -47.9084   7.8722   9.7214  11.6258  13.0909
    13.8439  14.1344  15.1703  17.1377  18.1416  21.5036  24.5301

          k = 0.1736-0.5208-0.4613 (  2628 PWs)   bands (ev):

   -87.5392 -47.9675 -47.9424 -47.9082   8.3276  10.5241  11.1808  12.7007
    14.2235  14.3703  14.6737  16.2509  17.0555  21.8493  25.2893

          k = 0.3472 0.3472 0.0000 (  2630 PWs)   bands (ev):

   -87.5389 -47.9568 -47.9310 -47.9306   6.4885  11.3342  11.9181  13.1891
    13.4851  13.5509  15.4095  17.3618  21.3868  21.3953  24.7299

          k = 0.3472 0.3472 0.1538 (  2637 PWs)   bands (ev):

   -87.5388 -47.9592 -47.9308 -47.9304   6.8175  11.4928  11.6931  13.0217
    13.7024  13.7576  15.7965  17.2797  19.0294  21.7298  24.6836

          k = 0.3472 0.3472 0.3075 (  2635 PWs)   bands (ev):

   -87.5386 -47.9641 -47.9303 -47.9300   7.6895  11.2410  11.3743  13.4696
    13.9508  14.0172  16.4518  17.0040  17.0405  21.8395  22.2954

          k = 0.3472 0.3472-0.4613 (  2632 PWs)   bands (ev):

   -87.5384 -47.9665 -47.9301 -47.9298   8.3951  10.6580  11.2481  14.0289
    14.0436  14.7975  14.8712  16.6962  18.5563  19.5816  21.3825

          k = 0.3472-0.5208 0.0000 (  2628 PWs)   bands (ev):

   -87.5382 -47.9559 -47.9413 -47.9298   8.0552   9.8302  12.3905  13.0967
    13.2985  13.4859  15.1928  17.9222  19.2357  22.2204  26.0904

          k = 0.3472-0.5208 0.1538 (  2628 PWs)   bands (ev):

   -87.5380 -47.9583 -47.9410 -47.9296   8.3308  10.0508  11.8381  13.2236
    13.7638  13.8639  15.2874  17.7126  19.4520  20.3605  22.7924

          k = 0.3472-0.5208 0.3075 (  2642 PWs)   bands (ev):

   -87.5378 -47.9631 -47.9405 -47.9291   9.0327  10.4355  11.2469  13.7385
    14.0409  14.9252  15.4689  16.6224  18.9174  19.1030  20.6077

          k = 0.3472-0.5208-0.4613 (  2636 PWs)   bands (ev):

   -87.5377 -47.9655 -47.9403 -47.9289   9.5531  10.5783  10.9219  14.1048
    14.7285  15.3911  15.4145  15.8921  17.2638  19.0134  21.0221

          k =-0.5208-0.5208 0.0000 (  2608 PWs)   bands (ev):

   -87.5374 -47.9549 -47.9402 -47.9402   8.9787  11.5488  11.5488  12.3935
    13.2631  13.2631  15.0675  16.8597  17.8666  22.2937  28.2546

          k =-0.5208-0.5208 0.1538 (  2620 PWs)   bands (ev):

   -87.5373 -47.9573 -47.9399 -47.9399   9.3012  11.1839  11.1839  12.8119
    14.0187  14.0187  15.0705  16.4487  17.7946  21.0977  24.1895

          k =-0.5208-0.5208 0.3075 (  2648 PWs)   bands (ev):

   -87.5370 -47.9621 -47.9395 -47.9395  10.1535  10.7508  10.7508  13.8887
    15.0765  15.1888  15.6393  15.6393  17.4977  19.8846  20.7338

          k =-0.5208-0.5208-0.4613 (  2656 PWs)   bands (ev):

   -87.5369 -47.9645 -47.9393 -47.9393  10.5923  10.5923  10.8171  14.2395
    14.7009  15.0795  17.1268  17.5042  17.5042  18.2703  18.2703

     the Fermi energy is    16.4426 ev

!    total energy              =    -344.08432789 Ry
     estimated scf accuracy    <          6.0E-10 Ry
     smearing contrib. (-TS)   =       0.00116131 Ry
     internal energy E=F+TS    =    -344.08548920 Ry

     The total energy is F=E-TS. E is the sum of the following terms:
     one-electron contribution =    -221.83193135 Ry
     hartree contribution      =     124.12402909 Ry
     xc contribution           =     -46.13880446 Ry
     ewald contribution        =    -200.23878248 Ry

     convergence has been achieved in  10 iterations

     Forces acting on atoms (cartesian axes, Ry/au):

     atom    1 type  1   force =     0.00000000    0.00000000    0.00000000
     atom    2 type  2   force =     0.00000000    0.00000000    0.00000000

     Total force =     0.000000     Total SCF correction =     0.000000


     Computing stress (Cartesian axis) and pressure

          total   stress  (Ry/bohr**3)                   (kbar)     P=      -20.73
  -0.00023936   0.00000000   0.00000000          -35.21        0.00        0.00
   0.00000000  -0.00023936   0.00000000            0.00      -35.21        0.00
   0.00000000   0.00000000   0.00005591            0.00        0.00        8.22


     Writing all to output data dir ./tmp/SiNi-vc-relax.save/ :
     XML data file, charge density, pseudopotentials, collected wavefunctions

     init_run     :      2.27s CPU      2.33s WALL (       2 calls)
     electrons    :     66.32s CPU     68.51s WALL (       6 calls)
     update_pot   :      0.05s CPU      0.06s WALL (       4 calls)
     forces       :      1.43s CPU      1.48s WALL (       6 calls)
     stress       :      5.62s CPU      5.74s WALL (       6 calls)

     Called by init_run:
     wfcinit      :      1.44s CPU      1.49s WALL (       2 calls)
     potinit      :      0.20s CPU      0.21s WALL (       2 calls)
     hinit0       :      0.59s CPU      0.59s WALL (       2 calls)

     Called by electrons:
     c_bands      :     59.54s CPU     61.40s WALL (      39 calls)
     sum_band     :      6.33s CPU      6.63s WALL (      39 calls)
     v_of_rho     :      0.46s CPU      0.49s WALL (      42 calls)
     mix_rho      :      0.05s CPU      0.05s WALL (      39 calls)

     Called by c_bands:
     init_us_2    :      1.77s CPU      1.87s WALL (    3680 calls)
     cegterg      :     56.65s CPU     58.42s WALL (    1560 calls)

     Called by *egterg:
     cdiaghg      :      0.84s CPU      0.88s WALL (    5856 calls)
     h_psi        :     42.08s CPU     43.64s WALL (    6216 calls)
     g_psi        :      0.30s CPU      0.32s WALL (    4576 calls)

     Called by h_psi:
     h_psi:calbec :      5.35s CPU      5.47s WALL (    6216 calls)
     vloc_psi     :     31.49s CPU     32.84s WALL (    6216 calls)
                                        0.00s GPU  (    6216 calls)
     add_vuspsi   :      4.97s CPU      5.06s WALL (    6216 calls)

     General routines
     calbec       :     10.08s CPU     10.28s WALL (   10296 calls)
     fft          :      0.19s CPU      0.20s WALL (     571 calls)
     ffts         :      0.01s CPU      0.02s WALL (      39 calls)
     fftw         :     31.87s CPU     33.65s WALL (  156756 calls)


     PWSCF        :   1m15.79s CPU   1m18.25s WALL


   This run was terminated on:  20:36:19   8Jan2026            

=------------------------------------------------------------------------------=
   JOB DONE.
=------------------------------------------------------------------------------=
