
     Program PWSCF v.7.5 starts on 11Jan2026 at 19: 7:32 

     This program is part of the open-source Quantum ESPRESSO suite
     for quantum simulation of materials; please cite
         "P. Giannozzi et al., J. Phys.:Condens. Matter 21 395502 (2009);
         "P. Giannozzi et al., J. Phys.:Condens. Matter 29 465901 (2017);
         "P. Giannozzi et al., J. Chem. Phys. 152 154105 (2020);
          URL http://www.quantum-espresso.org", 
     in publications or presentations arising from this work. More details at
     http://www.quantum-espresso.org/quote

     Serial version
     680 MiB available memory on the printing compute node when the environment starts

     Waiting for input...
     Reading input from standard input

     Current dimensions of program PWSCF are:
     Max number of different atomic species (ntypx) = 10
     Max number of k-points (npk) =  40000
     Max angular momentum in pseudopotentials (lmaxx) =  4
     Message from routine iosys:
     BEWARE:  force calculation with tetrahedra (not recommanded)
     Message from routine iosys:
     BEWARE: stress calculation with tetrahedra (not recommanded)
     [opt_tetra]  Optimized tetrahedron method is used.


     G-vector sticks info
     --------------------
     sticks:   dense  smooth     PW     G-vecs:    dense   smooth      PW
     Sum         823     823    253                15593    15593    2685

     Using Slab Decomposition



     bravais-lattice index     =            2
     lattice parameter (alat)  =      10.0000  a.u.
     unit-cell volume          =     250.0000 (a.u.)^3
     number of atoms/cell      =            2
     number of atomic types    =            2
     number of electrons       =        36.00
     number of Kohn-Sham states=           22
     kinetic-energy cutoff     =      60.0000  Ry
     charge density cutoff     =     240.0000  Ry
     scf convergence threshold =      1.0E-05
     mixing beta               =       0.7000
     number of iterations used =            8  plain     mixing
     Exchange-correlation= PBE
                           (   1   4   3   4   0   0   0)

     celldm(1)=  10.000000  celldm(2)=   0.000000  celldm(3)=   0.000000
     celldm(4)=   0.000000  celldm(5)=   0.000000  celldm(6)=   0.000000

     crystal axes: (cart. coord. in units of alat)
               a(1) = (  -0.500000   0.000000   0.500000 )  
               a(2) = (   0.000000   0.500000   0.500000 )  
               a(3) = (  -0.500000   0.500000   0.000000 )  

     reciprocal axes: (cart. coord. in units 2 pi/alat)
               b(1) = ( -1.000000 -1.000000  1.000000 )  
               b(2) = (  1.000000  1.000000  1.000000 )  
               b(3) = ( -1.000000  1.000000 -1.000000 )  


     PseudoPot. # 1 for Cd read from file:
     ./PSEUDO/Cd_ONCV_PBE-1.2.upf
     MD5 check sum: 810a600e5a5ac944c8c8f48f0d721646
     Pseudo is Norm-conserving, Zval = 20.0
     Generated using ONCVPSP code by D. R. Hamann
     Using radial grid of  602 points,  6 beta functions with: 
                l(1) =   0
                l(2) =   0
                l(3) =   1
                l(4) =   1
                l(5) =   2
                l(6) =   2

     PseudoPot. # 2 for Te read from file:
     ./PSEUDO/Te_ONCV_PBE-1.2.upf
     MD5 check sum: dd4de4dac1e38587f63aaf3700bb29d3
     Pseudo is Norm-conserving, Zval = 16.0
     Generated using ONCVPSP code by D. R. Hamann
     Using radial grid of  602 points,  6 beta functions with: 
                l(1) =   0
                l(2) =   0
                l(3) =   1
                l(4) =   1
                l(5) =   2
                l(6) =   2

     atomic species   valence    mass     pseudopotential
     Cd               20.00   112.40000     Cd( 1.00)
     Te               16.00   127.60000     Te( 1.00)

     24 Sym. Ops. (no inversion) found



   Cartesian axes

     site n.     atom                  positions (alat units)
         1        Cd     tau(   1) = (   0.0000000   0.0000000   0.0000000  )
         2        Te     tau(   2) = (  -0.2500000   0.2500000   0.2500000  )

     number of k points=    29 (tetrahedron method)
                       cart. coord. in units 2pi/alat
        k(    1) = (   0.0000000   0.0000000   0.0000000), wk =   0.0039062
        k(    2) = (  -0.1250000   0.1250000  -0.1250000), wk =   0.0312500
        k(    3) = (  -0.2500000   0.2500000  -0.2500000), wk =   0.0312500
        k(    4) = (  -0.3750000   0.3750000  -0.3750000), wk =   0.0312500
        k(    5) = (   0.5000000  -0.5000000   0.5000000), wk =   0.0156250
        k(    6) = (   0.0000000   0.2500000   0.0000000), wk =   0.0234375
        k(    7) = (  -0.1250000   0.3750000  -0.1250000), wk =   0.0937500
        k(    8) = (  -0.2500000   0.5000000  -0.2500000), wk =   0.0937500
        k(    9) = (   0.6250000  -0.3750000   0.6250000), wk =   0.0937500
        k(   10) = (   0.5000000  -0.2500000   0.5000000), wk =   0.0937500
        k(   11) = (   0.3750000  -0.1250000   0.3750000), wk =   0.0937500
        k(   12) = (   0.2500000   0.0000000   0.2500000), wk =   0.0468750
        k(   13) = (   0.0000000   0.5000000   0.0000000), wk =   0.0234375
        k(   14) = (  -0.1250000   0.6250000  -0.1250000), wk =   0.0937500
        k(   15) = (   0.7500000  -0.2500000   0.7500000), wk =   0.0937500
        k(   16) = (   0.6250000  -0.1250000   0.6250000), wk =   0.0937500
        k(   17) = (   0.5000000   0.0000000   0.5000000), wk =   0.0468750
        k(   18) = (   0.0000000   0.7500000   0.0000000), wk =   0.0234375
        k(   19) = (   0.8750000  -0.1250000   0.8750000), wk =   0.0937500
        k(   20) = (   0.7500000   0.0000000   0.7500000), wk =   0.0468750
        k(   21) = (   0.0000000  -1.0000000   0.0000000), wk =   0.0117188
        k(   22) = (  -0.2500000   0.5000000   0.0000000), wk =   0.0937500
        k(   23) = (   0.6250000  -0.3750000   0.8750000), wk =   0.1875000
        k(   24) = (   0.5000000  -0.2500000   0.7500000), wk =   0.0937500
        k(   25) = (   0.7500000  -0.2500000   1.0000000), wk =   0.0937500
        k(   26) = (   0.6250000  -0.1250000   0.8750000), wk =   0.1875000
        k(   27) = (   0.5000000   0.0000000   0.7500000), wk =   0.0937500
        k(   28) = (  -0.2500000  -1.0000000   0.0000000), wk =   0.0468750
        k(   29) = (  -0.5000000  -1.0000000   0.0000000), wk =   0.0234375

     Dense  grid:    15593 G-vectors     FFT dimensions: (  36,  36,  36)

     Estimated max dynamical RAM per process >      36.22 MB

     Initial potential from superposition of free atoms

     starting charge      35.9267, renormalised to      36.0000
     Starting wfcs are random

     total cpu time spent up to now is        0.6 secs

     Self-consistent Calculation

     iteration #  1     ecut=    60.00 Ry     beta= 0.70
     Davidson diagonalization with overlap
     ethr =  1.00E-02,  avg # of iterations =  9.1

     Threshold (ethr) on eigenvalues was too large:
     Diagonalizing with lowered threshold

     Davidson diagonalization with overlap
     ethr =  2.49E-04,  avg # of iterations =  2.7

     total cpu time spent up to now is        6.9 secs

     total energy              =    -485.18307010 Ry
     estimated scf accuracy    <       0.07673949 Ry

     iteration #  2     ecut=    60.00 Ry     beta= 0.70
     Davidson diagonalization with overlap
     ethr =  2.13E-04,  avg # of iterations =  2.0

     total cpu time spent up to now is        8.7 secs

     total energy              =    -485.20526955 Ry
     estimated scf accuracy    <       0.01784252 Ry

     iteration #  3     ecut=    60.00 Ry     beta= 0.70
     Davidson diagonalization with overlap
     ethr =  4.96E-05,  avg # of iterations =  2.2

     total cpu time spent up to now is       10.4 secs

     total energy              =    -485.20921923 Ry
     estimated scf accuracy    <       0.00020769 Ry

     iteration #  4     ecut=    60.00 Ry     beta= 0.70
     Davidson diagonalization with overlap
     ethr =  5.77E-07,  avg # of iterations =  2.6

     total cpu time spent up to now is       12.1 secs

     total energy              =    -485.20923976 Ry
     estimated scf accuracy    <       0.00001763 Ry

     iteration #  5     ecut=    60.00 Ry     beta= 0.70
     Davidson diagonalization with overlap
     ethr =  4.90E-08,  avg # of iterations =  2.0

     total cpu time spent up to now is       13.8 secs

     End of self-consistent calculation

          k = 0.0000 0.0000 0.0000 (  1917 PWs)   bands (ev):

   -83.5244 -44.7856 -44.7856 -44.7856 -17.0992 -17.0992 -17.0992 -17.0123
   -17.0123   4.9595   9.0222   9.0222   9.0222  10.0617  10.0617  21.9899
    21.9899  21.9899  24.2687  25.4295  25.4295  25.4295

          k =-0.1250 0.1250-0.1250 (  1964 PWs)   bands (ev):

   -83.5244 -44.7859 -44.7856 -44.7856 -17.1006 -17.0992 -17.0992 -17.0117
   -17.0117   5.1296   9.0669   9.0669   9.0672  10.0514  10.0514  19.8755
    21.4962  21.4962  24.5866  25.9684  25.9684  26.4091

          k =-0.2500 0.2500-0.2500 (  1955 PWs)   bands (ev):

   -83.5243 -44.7867 -44.7857 -44.7857 -17.1040 -17.0990 -17.0990 -17.0104
   -17.0104   5.5473   9.1650   9.1650   9.3230  10.0429  10.0429  16.8399
    20.6339  20.6339  24.3170  26.5114  26.5114  27.8353

          k =-0.3750 0.3750-0.3750 (  1952 PWs)   bands (ev):

   -83.5242 -44.7876 -44.7857 -44.7857 -17.1074 -17.0987 -17.0987 -17.0091
   -17.0091   5.9486   9.2411   9.2411  10.0666  10.0666  10.0895  14.0812
    19.9639  19.9639  24.0662  26.3489  26.3489  27.9631

          k = 0.5000-0.5000 0.5000 (  1946 PWs)   bands (ev):

   -83.5242 -44.7879 -44.7857 -44.7857 -17.1088 -17.0985 -17.0985 -17.0086
   -17.0086   6.0982   9.2640   9.2640  10.0884  10.0884  11.1920  12.2750
    19.7148  19.7148  23.9712  26.2067  26.2067  27.8589

          k = 0.0000 0.2500 0.0000 (  1965 PWs)   bands (ev):

   -83.5243 -44.7860 -44.7857 -44.7857 -17.1018 -17.0988 -17.0988 -17.0123
   -17.0108   5.1863   9.0319   9.1068   9.1068  10.0214  10.0756  20.4946
    20.6564  20.6564  24.4530  25.5756  26.9149  26.9149

          k =-0.1250 0.3750-0.1250 (  1967 PWs)   bands (ev):

   -83.5243 -44.7866 -44.7857 -44.7857 -17.1045 -17.0989 -17.0984 -17.0118
   -17.0091   5.5223   9.1144   9.2112   9.2541  10.0080  10.0842  17.8587
    19.7461  20.1930  24.5281  25.8804  26.9849  27.7765

          k =-0.2500 0.5000-0.2500 (  1962 PWs)   bands (ev):

   -83.5242 -44.7873 -44.7858 -44.7858 -17.1069 -17.0996 -17.0982 -17.0105
   -17.0078   5.9281   9.2246   9.3019   9.6813  10.0963  10.1629  15.0681
    19.1853  19.2979  24.4654  26.1844  27.5856  27.8276

          k = 0.6250-0.3750 0.6250 (  1967 PWs)   bands (ev):

   -83.5242 -44.7877 -44.7860 -44.7858 -17.1082 -17.1000 -17.0982 -17.0092
   -17.0075   6.1494   9.2681   9.3310   9.9665  10.0911  11.0989  12.8155
    18.5611  19.1502  24.3672  26.0728  27.0626  29.4609

          k = 0.5000-0.2500 0.5000 (  1956 PWs)   bands (ev):

   -83.5242 -44.7876 -44.7860 -44.7857 -17.1076 -17.0998 -17.0987 -17.0086
   -17.0084   6.1017   9.2740   9.3054   9.9868  10.0407  10.6932  13.4746
    18.2540  19.6660  24.6069  26.0944  26.7468  29.5561

          k = 0.3750-0.1250 0.3750 (  1961 PWs)   bands (ev):

   -83.5243 -44.7870 -44.7859 -44.7857 -17.1053 -17.0993 -17.0992 -17.0100
   -17.0091   5.7968   9.2256   9.2381   9.5418   9.9984  10.1366  15.9809
    18.4815  20.5712  25.1340  26.3126  26.5745  28.0405

          k = 0.2500 0.0000 0.2500 (  1955 PWs)   bands (ev):

   -83.5243 -44.7863 -44.7858 -44.7856 -17.1026 -17.0994 -17.0989 -17.0114
   -17.0104   5.3835   9.1207   9.1341   9.1827  10.0126  10.0747  18.6082
    19.4304  21.4470  25.3820  26.0452  26.1623  26.9844

          k = 0.0000 0.5000 0.0000 (  1964 PWs)   bands (ev):

   -83.5243 -44.7869 -44.7858 -44.7858 -17.1077 -17.0978 -17.0978 -17.0126
   -17.0069   5.7400   9.1238   9.3367   9.3367  10.0245  10.1094  18.0469
    18.7432  18.7432  23.2612  24.8402  29.3565  29.3567

          k =-0.1250 0.6250-0.1250 (  1972 PWs)   bands (ev):

   -83.5242 -44.7874 -44.7860 -44.7859 -17.1100 -17.0983 -17.0974 -17.0122
   -17.0053   6.0575   9.2292   9.4572   9.5261  10.1223  10.2865  15.9936
    17.8348  18.1075  23.4556  24.8704  29.2421  29.7371

          k = 0.7500-0.2500 0.7500 (  1961 PWs)   bands (ev):

   -83.5242 -44.7876 -44.7863 -44.7859 -17.1096 -17.1004 -17.0975 -17.0108
   -17.0050   6.2691   9.2839   9.5013   9.7577  10.1034  11.1345  13.8624
    16.7804  18.0573  23.5754  26.7019  28.9626  29.0545

          k = 0.6250-0.1250 0.6250 (  1960 PWs)   bands (ev):

   -83.5242 -44.7874 -44.7866 -44.7858 -17.1069 -17.1027 -17.0981 -17.0093
   -17.0062   6.2850   9.2948   9.4625   9.9033  10.0368  11.4464  13.4077
    16.1015  18.6239  23.9033  27.8828  28.3730  29.9669

          k = 0.5000 0.0000 0.5000 (  1959 PWs)   bands (ev):

   -83.5242 -44.7872 -44.7864 -44.7857 -17.1056 -17.1018 -17.0989 -17.0086
   -17.0083   6.1051   9.2923   9.3528   9.8377   9.9868  10.5038  15.1382
    16.3037  19.6195  24.6054  27.5671  27.6258  28.5139

          k = 0.0000 0.7500 0.0000 (  1972 PWs)   bands (ev):

   -83.5242 -44.7878 -44.7859 -44.7859 -17.1133 -17.0968 -17.0968 -17.0132
   -17.0031   6.2490   9.2186   9.6151   9.6151  10.1435  10.6138  15.3703
    17.3299  17.3299  22.6703  23.6449  32.0078  32.0078

          k = 0.8750-0.1250 0.8750 (  1969 PWs)   bands (ev):

   -83.5242 -44.7880 -44.7861 -44.7859 -17.1137 -17.0978 -17.0967 -17.0127
   -17.0025   6.3808   9.2512   9.6789   9.7140  10.1335  11.3787  14.1226
    16.2753  17.1494  22.9476  24.2288  31.5016  31.8826

          k = 0.7500 0.0000 0.7500 (  1938 PWs)   bands (ev):

   -83.5242 -44.7876 -44.7866 -44.7859 -17.1106 -17.1008 -17.0973 -17.0110
   -17.0038   6.3933   9.2885   9.6199   9.8051  10.0760  12.0004  13.5242
    15.2056  17.6402  23.2700  26.5682  30.1635  30.9198

          k = 0.0000-1.0000 0.0000 (  1964 PWs)   bands (ev):

   -83.5242 -44.7882 -44.7860 -44.7860 -17.1156 -17.0964 -17.0964 -17.0136
   -17.0015   6.4241   9.2132   9.7500   9.7500  10.1578  11.6110  13.6259
    16.8012  16.8012  22.5540  23.2126  33.4548  34.3019

          k =-0.2500 0.5000 0.0000 (  1969 PWs)   bands (ev):

   -83.5243 -44.7870 -44.7860 -44.7857 -17.1067 -17.0990 -17.0985 -17.0113
   -17.0074   5.8520   9.2159   9.3069   9.4721  10.0365  10.1521  16.6985
    17.7236  19.6492  24.8716  25.6949  26.8336  29.1746

          k = 0.6250-0.3750 0.8750 (  1956 PWs)   bands (ev):

   -83.5242 -44.7874 -44.7863 -44.7858 -17.1075 -17.1009 -17.0981 -17.0101
   -17.0065   6.1546   9.3008   9.3762   9.7879  10.0651  10.6551  14.4946
    17.0401  18.7506  25.0043  26.0505  27.4089  29.4917

          k = 0.5000-0.2500 0.7500 (  1980 PWs)   bands (ev):

   -83.5242 -44.7875 -44.7864 -44.7858 -17.1074 -17.1022 -17.0980 -17.0093
   -17.0064   6.2652   9.3043   9.4173   9.9194  10.0464  11.5427  12.9434
    16.9768  18.2935  24.9033  25.9219  28.5899  30.2562

          k = 0.7500-0.2500 1.0000 (  1971 PWs)   bands (ev):

   -83.5242 -44.7876 -44.7862 -44.7859 -17.1111 -17.0991 -17.0972 -17.0118
   -17.0041   6.2729   9.2927   9.5083   9.7065  10.1086  10.8778  14.9269
    16.5421  17.3823  24.0597  24.8099  28.7460  31.9547

          k = 0.6250-0.1250 0.8750 (  1958 PWs)   bands (ev):

   -83.5242 -44.7875 -44.7866 -44.7859 -17.1092 -17.1022 -17.0972 -17.0105
   -17.0044   6.3756   9.3212   9.5427   9.8480  10.0449  11.8163  13.6654
    15.6988  17.0692  24.4860  26.6892  28.1132  30.2590

          k = 0.5000 0.0000 0.7500 (  1966 PWs)   bands (ev):

   -83.5242 -44.7872 -44.7868 -44.7859 -17.1064 -17.1041 -17.0977 -17.0096
   -17.0056   6.3314   9.3325   9.4776   9.9010  10.0041  11.5108  13.9997
    15.4699  17.7208  24.9734  27.0773  27.8407  29.8354

          k =-0.2500-1.0000 0.0000 (  1956 PWs)   bands (ev):

   -83.5242 -44.7879 -44.7863 -44.7860 -17.1129 -17.0992 -17.0967 -17.0121
   -17.0027   6.4206   9.2792   9.6483   9.7952  10.1017  11.9175  13.6114
    16.1860  16.3838  23.7988  24.5310  30.4757  31.4167

          k =-0.5000-1.0000 0.0000 (  1964 PWs)   bands (ev):

   -83.5242 -44.7873 -44.7869 -44.7860 -17.1073 -17.1048 -17.0970 -17.0100
   -17.0045   6.4171   9.3438   9.5634   9.9434   9.9459  12.2560  13.5947
    15.6055  16.0307  25.9222  27.3525  27.6642  27.8365

     the Fermi energy is    22.4024 ev

!    total energy              =    -485.20924366 Ry
     estimated scf accuracy    <       0.00000159 Ry

     The total energy is the sum of the following terms:
     one-electron contribution =    -204.58135399 Ry
     hartree contribution      =     118.55246995 Ry
     xc contribution           =     -47.08950544 Ry
     ewald contribution        =    -352.09085418 Ry

     convergence has been achieved in   5 iterations

     Forces acting on atoms (cartesian axes, Ry/au):

     atom    1 type  1   force =    -0.00000000    0.00000000   -0.00000000
     atom    2 type  2   force =     0.00000000    0.00000000    0.00000000

     Total force =     0.000000     Total SCF correction =     0.000000


     Computing stress (Cartesian axis) and pressure

          total   stress  (Ry/bohr**3)                   (kbar)     P=     1192.54
   0.00810669   0.00000000   0.00000000         1192.54        0.00        0.00
  -0.00000000   0.00810669   0.00000000           -0.00     1192.54        0.00
   0.00000000  -0.00000000   0.00810669            0.00       -0.00     1192.54


     Writing all to output data dir ./tmp/CdTe.save/ :
     XML data file, charge density, pseudopotentials, collected wavefunctions

     init_run     :      0.55s CPU      0.60s WALL (       1 calls)
     electrons    :     12.73s CPU     13.21s WALL (       1 calls)
     forces       :      0.18s CPU      0.18s WALL (       1 calls)
     stress       :      0.68s CPU      0.70s WALL (       1 calls)

     Called by init_run:
     wfcinit      :      0.48s CPU      0.52s WALL (       1 calls)
     potinit      :      0.03s CPU      0.03s WALL (       1 calls)
     hinit0       :      0.04s CPU      0.04s WALL (       1 calls)

     Called by electrons:
     c_bands      :     11.18s CPU     11.60s WALL (       6 calls)
     sum_band     :      1.50s CPU      1.55s WALL (       6 calls)
     v_of_rho     :      0.06s CPU      0.07s WALL (       6 calls)
     mix_rho      :      0.00s CPU      0.01s WALL (       6 calls)

     Called by c_bands:
     init_us_2    :      0.16s CPU      0.19s WALL (     435 calls)
     cegterg      :     10.94s CPU     11.32s WALL (     174 calls)

     Called by *egterg:
     cdiaghg      :      0.27s CPU      0.27s WALL (     741 calls)
     h_psi        :      7.55s CPU      7.92s WALL (     799 calls)
     g_psi        :      0.05s CPU      0.05s WALL (     596 calls)

     Called by h_psi:
     h_psi:calbec :      0.80s CPU      0.82s WALL (     799 calls)
     vloc_psi     :      5.93s CPU      6.25s WALL (     799 calls)
                                        0.00s GPU  (     799 calls)
     add_vuspsi   :      0.76s CPU      0.77s WALL (     799 calls)

     General routines
     calbec       :      1.44s CPU      1.47s WALL (    1292 calls)
     fft          :      0.02s CPU      0.02s WALL (      68 calls)
     ffts         :      0.00s CPU      0.00s WALL (       6 calls)
     fftw         :      5.82s CPU      6.27s WALL (   30700 calls)


     PWSCF        :     14.17s CPU     14.73s WALL


   This run was terminated on:  19: 7:47  11Jan2026            

=------------------------------------------------------------------------------=
   JOB DONE.
=------------------------------------------------------------------------------=
