
     Program PWSCF v.7.5 starts on 11Jan2026 at 19:14:59 

     This program is part of the open-source Quantum ESPRESSO suite
     for quantum simulation of materials; please cite
         "P. Giannozzi et al., J. Phys.:Condens. Matter 21 395502 (2009);
         "P. Giannozzi et al., J. Phys.:Condens. Matter 29 465901 (2017);
         "P. Giannozzi et al., J. Chem. Phys. 152 154105 (2020);
          URL http://www.quantum-espresso.org", 
     in publications or presentations arising from this work. More details at
     http://www.quantum-espresso.org/quote

     Serial version
     716 MiB available memory on the printing compute node when the environment starts

     Waiting for input...
     Reading input from standard input

     Current dimensions of program PWSCF are:
     Max number of different atomic species (ntypx) = 10
     Max number of k-points (npk) =  40000
     Max angular momentum in pseudopotentials (lmaxx) =  4
     Message from routine iosys:
     BEWARE:  force calculation with tetrahedra (not recommanded)
     Message from routine iosys:
     BEWARE: stress calculation with tetrahedra (not recommanded)
     [opt_tetra]  Optimized tetrahedron method is used.


     G-vector sticks info
     --------------------
     sticks:   dense  smooth     PW     G-vecs:    dense   smooth      PW
     Sum         955     955    295                19795    19795    3287

     Using Slab Decomposition



     bravais-lattice index     =            2
     lattice parameter (alat)  =      10.0000  a.u.
     unit-cell volume          =     250.0000 (a.u.)^3
     number of atoms/cell      =            2
     number of atomic types    =            2
     number of electrons       =        36.00
     number of Kohn-Sham states=           22
     kinetic-energy cutoff     =      70.0000  Ry
     charge density cutoff     =     280.0000  Ry
     scf convergence threshold =      1.0E-05
     mixing beta               =       0.7000
     number of iterations used =            8  plain     mixing
     Exchange-correlation= PBE
                           (   1   4   3   4   0   0   0)

     celldm(1)=  10.000000  celldm(2)=   0.000000  celldm(3)=   0.000000
     celldm(4)=   0.000000  celldm(5)=   0.000000  celldm(6)=   0.000000

     crystal axes: (cart. coord. in units of alat)
               a(1) = (  -0.500000   0.000000   0.500000 )  
               a(2) = (   0.000000   0.500000   0.500000 )  
               a(3) = (  -0.500000   0.500000   0.000000 )  

     reciprocal axes: (cart. coord. in units 2 pi/alat)
               b(1) = ( -1.000000 -1.000000  1.000000 )  
               b(2) = (  1.000000  1.000000  1.000000 )  
               b(3) = ( -1.000000  1.000000 -1.000000 )  


     PseudoPot. # 1 for Cd read from file:
     ./PSEUDO/Cd_ONCV_PBE-1.2.upf
     MD5 check sum: 810a600e5a5ac944c8c8f48f0d721646
     Pseudo is Norm-conserving, Zval = 20.0
     Generated using ONCVPSP code by D. R. Hamann
     Using radial grid of  602 points,  6 beta functions with: 
                l(1) =   0
                l(2) =   0
                l(3) =   1
                l(4) =   1
                l(5) =   2
                l(6) =   2

     PseudoPot. # 2 for Te read from file:
     ./PSEUDO/Te_ONCV_PBE-1.2.upf
     MD5 check sum: dd4de4dac1e38587f63aaf3700bb29d3
     Pseudo is Norm-conserving, Zval = 16.0
     Generated using ONCVPSP code by D. R. Hamann
     Using radial grid of  602 points,  6 beta functions with: 
                l(1) =   0
                l(2) =   0
                l(3) =   1
                l(4) =   1
                l(5) =   2
                l(6) =   2

     atomic species   valence    mass     pseudopotential
     Cd               20.00   112.40000     Cd( 1.00)
     Te               16.00   127.60000     Te( 1.00)

     24 Sym. Ops. (no inversion) found



   Cartesian axes

     site n.     atom                  positions (alat units)
         1        Cd     tau(   1) = (   0.0000000   0.0000000   0.0000000  )
         2        Te     tau(   2) = (  -0.2500000   0.2500000   0.2500000  )

     number of k points=    16 (tetrahedron method)
                       cart. coord. in units 2pi/alat
        k(    1) = (   0.0000000   0.0000000   0.0000000), wk =   0.0092593
        k(    2) = (  -0.1666667   0.1666667  -0.1666667), wk =   0.0740741
        k(    3) = (  -0.3333333   0.3333333  -0.3333333), wk =   0.0740741
        k(    4) = (   0.5000000  -0.5000000   0.5000000), wk =   0.0370370
        k(    5) = (   0.0000000   0.3333333   0.0000000), wk =   0.0555556
        k(    6) = (  -0.1666667   0.5000000  -0.1666667), wk =   0.2222222
        k(    7) = (   0.6666667  -0.3333333   0.6666667), wk =   0.2222222
        k(    8) = (   0.5000000  -0.1666667   0.5000000), wk =   0.2222222
        k(    9) = (   0.3333333   0.0000000   0.3333333), wk =   0.1111111
        k(   10) = (   0.0000000   0.6666667   0.0000000), wk =   0.0555556
        k(   11) = (   0.8333333  -0.1666667   0.8333333), wk =   0.2222222
        k(   12) = (   0.6666667   0.0000000   0.6666667), wk =   0.1111111
        k(   13) = (   0.0000000  -1.0000000   0.0000000), wk =   0.0277778
        k(   14) = (   0.6666667  -0.3333333   1.0000000), wk =   0.2222222
        k(   15) = (   0.5000000  -0.1666667   0.8333333), wk =   0.2222222
        k(   16) = (  -0.3333333  -1.0000000   0.0000000), wk =   0.1111111

     Dense  grid:    19795 G-vectors     FFT dimensions: (  40,  40,  40)

     Estimated max dynamical RAM per process >      34.80 MB

     Initial potential from superposition of free atoms

     starting charge      35.9267, renormalised to      36.0000
     Starting wfcs are random

     total cpu time spent up to now is        0.5 secs

     Self-consistent Calculation

     iteration #  1     ecut=    70.00 Ry     beta= 0.70
     Davidson diagonalization with overlap
     ethr =  1.00E-02,  avg # of iterations =  9.2

     Threshold (ethr) on eigenvalues was too large:
     Diagonalizing with lowered threshold

     Davidson diagonalization with overlap
     ethr =  2.51E-04,  avg # of iterations =  2.9

     total cpu time spent up to now is        5.5 secs

     total energy              =    -485.18157320 Ry
     estimated scf accuracy    <       0.07736612 Ry

     iteration #  2     ecut=    70.00 Ry     beta= 0.70
     Davidson diagonalization with overlap
     ethr =  2.15E-04,  avg # of iterations =  2.0

     total cpu time spent up to now is        6.9 secs

     total energy              =    -485.20395551 Ry
     estimated scf accuracy    <       0.01803117 Ry

     iteration #  3     ecut=    70.00 Ry     beta= 0.70
     Davidson diagonalization with overlap
     ethr =  5.01E-05,  avg # of iterations =  2.0

     total cpu time spent up to now is        8.2 secs

     total energy              =    -485.20794849 Ry
     estimated scf accuracy    <       0.00021129 Ry

     iteration #  4     ecut=    70.00 Ry     beta= 0.70
     Davidson diagonalization with overlap
     ethr =  5.87E-07,  avg # of iterations =  3.1

     total cpu time spent up to now is        9.7 secs

     total energy              =    -485.20796928 Ry
     estimated scf accuracy    <       0.00001832 Ry

     iteration #  5     ecut=    70.00 Ry     beta= 0.70
     Davidson diagonalization with overlap
     ethr =  5.09E-08,  avg # of iterations =  2.0

     total cpu time spent up to now is       11.1 secs

     End of self-consistent calculation

          k = 0.0000 0.0000 0.0000 (  2445 PWs)   bands (ev):

   -83.5231 -44.7842 -44.7842 -44.7842 -17.0882 -17.0882 -17.0882 -17.0012
   -17.0012   4.9641   9.0244   9.0244   9.0244  10.0630  10.0630  21.9945
    21.9945  21.9945  24.2732  25.4312  25.4312  25.4312

          k =-0.1667 0.1667-0.1667 (  2487 PWs)   bands (ev):

   -83.5231 -44.7848 -44.7842 -44.7842 -17.0906 -17.0881 -17.0881 -17.0001
   -17.0001   5.2561   9.0995   9.0995   9.1185  10.0475  10.0475  18.8663
    21.2148  21.2148  24.5186  26.2332  26.2332  26.9734

          k =-0.3333 0.3333-0.3333 (  2473 PWs)   bands (ev):

   -83.5230 -44.7859 -44.7843 -44.7843 -17.0954 -17.0878 -17.0878 -16.9983
   -16.9983   5.8403   9.2237   9.2237   9.7619  10.0570  10.0570  14.9501
    20.1523  20.1523  24.1397  26.4352  26.4352  28.0112

          k = 0.5000-0.5000 0.5000 (  2488 PWs)   bands (ev):

   -83.5230 -44.7865 -44.7843 -44.7843 -17.0978 -17.0875 -17.0875 -16.9974
   -16.9974   6.1030   9.2660   9.2660  10.0898  10.0898  11.1942  12.2779
    19.7187  19.7187  23.9748  26.2084  26.2084  27.8616

          k = 0.0000 0.3333 0.0000 (  2497 PWs)   bands (ev):

   -83.5231 -44.7848 -44.7843 -44.7843 -17.0925 -17.0875 -17.0875 -17.0012
   -16.9985   5.3533   9.0511   9.1722   9.1722  10.0035  10.0867  19.7373
    20.0000  20.0000  24.0110  25.6847  27.7017  27.7017

          k =-0.1667 0.5000-0.1667 (  2487 PWs)   bands (ev):

   -83.5230 -44.7857 -44.7844 -44.7844 -17.0960 -17.0880 -17.0870 -17.0003
   -16.9962   5.8407   9.1955   9.3218   9.4635  10.0851  10.1034  16.3155
    18.9595  19.1111  24.1820  25.9364  27.4772  28.3871

          k = 0.6667-0.3333 0.6667 (  2472 PWs)   bands (ev):

   -83.5230 -44.7862 -44.7847 -44.7844 -17.0971 -17.0896 -17.0870 -16.9985
   -16.9956   6.1899   9.2749   9.3817   9.8933  10.0951  11.0884  13.1502
    17.9467  18.8037  24.1436  26.6289  27.6444  29.3098

          k = 0.5000-0.1667 0.5000 (  2478 PWs)   bands (ev):

   -83.5230 -44.7860 -44.7848 -44.7843 -17.0957 -17.0896 -17.0878 -16.9975
   -16.9972   6.1083   9.2836   9.3302   9.9191  10.0160  10.5820  14.1092
    17.4778  19.6463  24.6489  26.5445  27.1093  29.5964

          k = 0.3333 0.0000 0.3333 (  2485 PWs)   bands (ev):

   -83.5230 -44.7853 -44.7845 -44.7842 -17.0931 -17.0883 -17.0882 -16.9994
   -16.9983   5.6492   9.1907   9.2146   9.3497   9.9933  10.1109  17.3302
    18.2639  20.9610  25.5820  26.4905  26.4916  27.0182

          k = 0.0000 0.6667 0.0000 (  2465 PWs)   bands (ev):

   -83.5230 -44.7861 -44.7845 -44.7845 -17.1007 -17.0861 -17.0861 -17.0018
   -16.9931   6.1150   9.2062   9.5294   9.5294  10.1347  10.3118  16.2505
    17.7222  17.7222  22.8015  23.9666  31.1037  31.1038

          k = 0.8333-0.1667 0.8333 (  2458 PWs)   bands (ev):

   -83.5229 -44.7864 -44.7848 -44.7845 -17.1014 -17.0877 -17.0859 -17.0010
   -16.9921   6.3540   9.2717   9.6290   9.7084  10.1228  11.2798  14.2497
    16.1827  17.4069  23.1278  24.9913  30.6689  30.8307

          k = 0.6667 0.0000 0.6667 (  2492 PWs)   bands (ev):

   -83.5229 -44.7859 -44.7854 -44.7844 -17.0967 -17.0918 -17.0868 -16.9987
   -16.9941   6.3483   9.2992   9.5367   9.8745  10.0388  11.6975  13.7189
    15.2148  18.2276  23.6231  28.1831  29.1857  30.0267

          k = 0.0000-1.0000 0.0000 (  2466 PWs)   bands (ev):

   -83.5229 -44.7868 -44.7846 -44.7846 -17.1046 -17.0854 -17.0854 -17.0024
   -16.9903   6.4289   9.2148   9.7520   9.7520  10.1590  11.6135  13.6286
    16.8045  16.8045  22.5564  23.2153  33.4570  34.3050

          k = 0.6667-0.3333 1.0000 (  2461 PWs)   bands (ev):

   -83.5230 -44.7860 -44.7849 -44.7844 -17.0975 -17.0895 -17.0868 -16.9996
   -16.9945   6.1956   9.3270   9.3993   9.7335  10.0752  10.6786  15.1108
    16.4207  18.2290  25.1323  25.6852  27.0896  31.1528

          k = 0.5000-0.1667 0.8333 (  2470 PWs)   bands (ev):

   -83.5229 -44.7859 -44.7853 -44.7845 -17.0960 -17.0928 -17.0865 -16.9985
   -16.9943   6.3483   9.3324   9.4852   9.9115  10.0092  11.7885  13.3596
    16.0023  17.4260  25.2496  26.3188  28.6258  29.3957

          k =-0.3333-1.0000 0.0000 (  2472 PWs)   bands (ev):

   -83.5229 -44.7863 -44.7851 -44.7846 -17.0999 -17.0901 -17.0858 -17.0000
   -16.9923   6.4237   9.3136   9.6062   9.8360  10.0594  12.0831  13.6063
    15.8988  16.2039  24.5942  25.4176  29.3009  30.1116

     the Fermi energy is    22.4582 ev

!    total energy              =    -485.20797336 Ry
     estimated scf accuracy    <       0.00000167 Ry

     The total energy is the sum of the following terms:
     one-electron contribution =    -204.59207556 Ry
     hartree contribution      =     118.56589744 Ry
     xc contribution           =     -47.09094109 Ry
     ewald contribution        =    -352.09085415 Ry

     convergence has been achieved in   5 iterations

     Forces acting on atoms (cartesian axes, Ry/au):

     atom    1 type  1   force =     0.00000000    0.00000000    0.00000000
     atom    2 type  2   force =    -0.00000000    0.00000000    0.00000000

     Total force =     0.000000     Total SCF correction =     0.000000


     Computing stress (Cartesian axis) and pressure

          total   stress  (Ry/bohr**3)                   (kbar)     P=     1194.51
   0.00812008   0.00000000   0.00000000         1194.51        0.00        0.00
   0.00000000   0.00812008  -0.00000000            0.00     1194.51       -0.00
   0.00000000  -0.00000000   0.00812008            0.00       -0.00     1194.51


     Writing all to output data dir ./tmp/CdTe.save/ :
     XML data file, charge density, pseudopotentials, collected wavefunctions

     init_run     :      0.47s CPU      0.50s WALL (       1 calls)
     electrons    :     10.31s CPU     10.54s WALL (       1 calls)
     forces       :      0.12s CPU      0.12s WALL (       1 calls)
     stress       :      0.48s CPU      0.50s WALL (       1 calls)

     Called by init_run:
     wfcinit      :      0.39s CPU      0.41s WALL (       1 calls)
     potinit      :      0.04s CPU      0.05s WALL (       1 calls)
     hinit0       :      0.04s CPU      0.04s WALL (       1 calls)

     Called by electrons:
     c_bands      :      9.03s CPU      9.23s WALL (       6 calls)
     sum_band     :      1.19s CPU      1.21s WALL (       6 calls)
     v_of_rho     :      0.09s CPU      0.11s WALL (       6 calls)
     mix_rho      :      0.01s CPU      0.01s WALL (       6 calls)

     Called by c_bands:
     init_us_2    :      0.12s CPU      0.13s WALL (     240 calls)
     cegterg      :      8.85s CPU      9.04s WALL (      96 calls)

     Called by *egterg:
     cdiaghg      :      0.15s CPU      0.16s WALL (     419 calls)
     h_psi        :      6.60s CPU      6.79s WALL (     451 calls)
     g_psi        :      0.03s CPU      0.04s WALL (     339 calls)

     Called by h_psi:
     h_psi:calbec :      0.57s CPU      0.58s WALL (     451 calls)
     vloc_psi     :      5.47s CPU      5.65s WALL (     451 calls)
                                        0.00s GPU  (     451 calls)
     add_vuspsi   :      0.53s CPU      0.53s WALL (     451 calls)

     General routines
     calbec       :      1.01s CPU      1.02s WALL (     723 calls)
     fft          :      0.04s CPU      0.04s WALL (      68 calls)
     ffts         :      0.00s CPU      0.00s WALL (       6 calls)
     fftw         :      5.60s CPU      5.80s WALL (   16960 calls)


     PWSCF        :     11.41s CPU     11.71s WALL


   This run was terminated on:  19:15:11  11Jan2026            

=------------------------------------------------------------------------------=
   JOB DONE.
=------------------------------------------------------------------------------=
