
     Program PWSCF v.7.5 starts on 11Jan2026 at 19:14:53 

     This program is part of the open-source Quantum ESPRESSO suite
     for quantum simulation of materials; please cite
         "P. Giannozzi et al., J. Phys.:Condens. Matter 21 395502 (2009);
         "P. Giannozzi et al., J. Phys.:Condens. Matter 29 465901 (2017);
         "P. Giannozzi et al., J. Chem. Phys. 152 154105 (2020);
          URL http://www.quantum-espresso.org", 
     in publications or presentations arising from this work. More details at
     http://www.quantum-espresso.org/quote

     Serial version
     727 MiB available memory on the printing compute node when the environment starts

     Waiting for input...
     Reading input from standard input

     Current dimensions of program PWSCF are:
     Max number of different atomic species (ntypx) = 10
     Max number of k-points (npk) =  40000
     Max angular momentum in pseudopotentials (lmaxx) =  4
     Message from routine iosys:
     BEWARE:  force calculation with tetrahedra (not recommanded)
     Message from routine iosys:
     BEWARE: stress calculation with tetrahedra (not recommanded)
     [opt_tetra]  Optimized tetrahedron method is used.


     G-vector sticks info
     --------------------
     sticks:   dense  smooth     PW     G-vecs:    dense   smooth      PW
     Sum         955     955    283                19795    19795    3143

     Using Slab Decomposition



     bravais-lattice index     =            2
     lattice parameter (alat)  =      10.0000  a.u.
     unit-cell volume          =     250.0000 (a.u.)^3
     number of atoms/cell      =            2
     number of atomic types    =            2
     number of electrons       =        36.00
     number of Kohn-Sham states=           22
     kinetic-energy cutoff     =      70.0000  Ry
     charge density cutoff     =     280.0000  Ry
     scf convergence threshold =      1.0E-05
     mixing beta               =       0.7000
     number of iterations used =            8  plain     mixing
     Exchange-correlation= PBE
                           (   1   4   3   4   0   0   0)

     celldm(1)=  10.000000  celldm(2)=   0.000000  celldm(3)=   0.000000
     celldm(4)=   0.000000  celldm(5)=   0.000000  celldm(6)=   0.000000

     crystal axes: (cart. coord. in units of alat)
               a(1) = (  -0.500000   0.000000   0.500000 )  
               a(2) = (   0.000000   0.500000   0.500000 )  
               a(3) = (  -0.500000   0.500000   0.000000 )  

     reciprocal axes: (cart. coord. in units 2 pi/alat)
               b(1) = ( -1.000000 -1.000000  1.000000 )  
               b(2) = (  1.000000  1.000000  1.000000 )  
               b(3) = ( -1.000000  1.000000 -1.000000 )  


     PseudoPot. # 1 for Cd read from file:
     ./PSEUDO/Cd_ONCV_PBE-1.2.upf
     MD5 check sum: 810a600e5a5ac944c8c8f48f0d721646
     Pseudo is Norm-conserving, Zval = 20.0
     Generated using ONCVPSP code by D. R. Hamann
     Using radial grid of  602 points,  6 beta functions with: 
                l(1) =   0
                l(2) =   0
                l(3) =   1
                l(4) =   1
                l(5) =   2
                l(6) =   2

     PseudoPot. # 2 for Te read from file:
     ./PSEUDO/Te_ONCV_PBE-1.2.upf
     MD5 check sum: dd4de4dac1e38587f63aaf3700bb29d3
     Pseudo is Norm-conserving, Zval = 16.0
     Generated using ONCVPSP code by D. R. Hamann
     Using radial grid of  602 points,  6 beta functions with: 
                l(1) =   0
                l(2) =   0
                l(3) =   1
                l(4) =   1
                l(5) =   2
                l(6) =   2

     atomic species   valence    mass     pseudopotential
     Cd               20.00   112.40000     Cd( 1.00)
     Te               16.00   127.60000     Te( 1.00)

     24 Sym. Ops. (no inversion) found



   Cartesian axes

     site n.     atom                  positions (alat units)
         1        Cd     tau(   1) = (   0.0000000   0.0000000   0.0000000  )
         2        Te     tau(   2) = (  -0.2500000   0.2500000   0.2500000  )

     number of k points=     8 (tetrahedron method)
                       cart. coord. in units 2pi/alat
        k(    1) = (   0.0000000   0.0000000   0.0000000), wk =   0.0312500
        k(    2) = (  -0.2500000   0.2500000  -0.2500000), wk =   0.2500000
        k(    3) = (   0.5000000  -0.5000000   0.5000000), wk =   0.1250000
        k(    4) = (   0.0000000   0.5000000   0.0000000), wk =   0.1875000
        k(    5) = (   0.7500000  -0.2500000   0.7500000), wk =   0.7500000
        k(    6) = (   0.5000000   0.0000000   0.5000000), wk =   0.3750000
        k(    7) = (   0.0000000  -1.0000000   0.0000000), wk =   0.0937500
        k(    8) = (  -0.5000000  -1.0000000   0.0000000), wk =   0.1875000

     Dense  grid:    19795 G-vectors     FFT dimensions: (  40,  40,  40)

     Estimated max dynamical RAM per process >      28.16 MB

     Initial potential from superposition of free atoms

     starting charge      35.9267, renormalised to      36.0000
     Starting wfcs are random

     total cpu time spent up to now is        0.3 secs

     Self-consistent Calculation

     iteration #  1     ecut=    70.00 Ry     beta= 0.70
     Davidson diagonalization with overlap
     ethr =  1.00E-02,  avg # of iterations =  8.9

     Threshold (ethr) on eigenvalues was too large:
     Diagonalizing with lowered threshold

     Davidson diagonalization with overlap
     ethr =  2.61E-04,  avg # of iterations =  2.8

     total cpu time spent up to now is        2.8 secs

     total energy              =    -485.16929061 Ry
     estimated scf accuracy    <       0.08072518 Ry

     iteration #  2     ecut=    70.00 Ry     beta= 0.70
     Davidson diagonalization with overlap
     ethr =  2.24E-04,  avg # of iterations =  2.8

     total cpu time spent up to now is        3.4 secs

     total energy              =    -485.19227390 Ry
     estimated scf accuracy    <       0.01841934 Ry

     iteration #  3     ecut=    70.00 Ry     beta= 0.70
     Davidson diagonalization with overlap
     ethr =  5.12E-05,  avg # of iterations =  2.0

     total cpu time spent up to now is        4.1 secs

     total energy              =    -485.19639879 Ry
     estimated scf accuracy    <       0.00023275 Ry

     iteration #  4     ecut=    70.00 Ry     beta= 0.70
     Davidson diagonalization with overlap
     ethr =  6.47E-07,  avg # of iterations =  2.0

     total cpu time spent up to now is        4.8 secs

     total energy              =    -485.19642392 Ry
     estimated scf accuracy    <       0.00001903 Ry

     iteration #  5     ecut=    70.00 Ry     beta= 0.70
     Davidson diagonalization with overlap
     ethr =  5.29E-08,  avg # of iterations =  2.0

     total cpu time spent up to now is        5.4 secs

     End of self-consistent calculation

          k = 0.0000 0.0000 0.0000 (  2445 PWs)   bands (ev):

   -83.5171 -44.7778 -44.7778 -44.7778 -17.0243 -17.0243 -17.0243 -16.9363
   -16.9363   4.9908   9.0353   9.0353   9.0353  10.0685  10.0685  22.0208
    22.0208  22.0208  24.3002  25.4406  25.4406  25.4406

          k =-0.2500 0.2500-0.2500 (  2493 PWs)   bands (ev):

   -83.5170 -44.7790 -44.7779 -44.7779 -17.0291 -17.0241 -17.0241 -16.9343
   -16.9343   5.5798   9.1778   9.1778   9.3359  10.0499  10.0499  16.8620
    20.6608  20.6608  24.3409  26.5246  26.5246  27.8608

          k = 0.5000-0.5000 0.5000 (  2488 PWs)   bands (ev):

   -83.5169 -44.7801 -44.7779 -44.7779 -17.0339 -17.0236 -17.0236 -16.9326
   -16.9326   6.1308   9.2761   9.2761  10.0959  10.0959  11.2056  12.2951
    19.7409  19.7409  23.9961  26.2180  26.2180  27.8779

          k = 0.0000 0.5000 0.0000 (  2477 PWs)   bands (ev):

   -83.5170 -44.7791 -44.7780 -44.7780 -17.0328 -17.0228 -17.0228 -16.9366
   -16.9309   5.7729   9.1361   9.3495   9.3495  10.0324  10.1161  18.0726
    18.7661  18.7661  23.2787  24.8570  29.3767  29.3768

          k = 0.7500-0.2500 0.7500 (  2470 PWs)   bands (ev):

   -83.5169 -44.7798 -44.7785 -44.7781 -17.0347 -17.0255 -17.0226 -16.9348
   -16.9289   6.3019   9.2952   9.5134   9.7670  10.1105  11.1487  13.8826
    16.8019  18.0802  23.5928  26.7231  28.9853  29.0700

          k = 0.5000 0.0000 0.5000 (  2461 PWs)   bands (ev):

   -83.5169 -44.7794 -44.7786 -44.7779 -17.0306 -17.0269 -17.0239 -16.9326
   -16.9322   6.1382   9.3042   9.3654   9.8468   9.9939  10.5164  15.1599
    16.3241  19.6448  24.6232  27.5890  27.6388  28.5441

          k = 0.0000-1.0000 0.0000 (  2466 PWs)   bands (ev):

   -83.5169 -44.7804 -44.7782 -44.7782 -17.0407 -17.0214 -17.0214 -16.9376
   -16.9254   6.4566   9.2227   9.7622   9.7622  10.1644  11.6270  13.6440
    16.8233  16.8233  22.5711  23.2309  33.4703  34.3226

          k =-0.5000-1.0000 0.0000 (  2488 PWs)   bands (ev):

   -83.5169 -44.7795 -44.7791 -44.7782 -17.0324 -17.0299 -17.0220 -16.9340
   -16.9284   6.4498   9.3546   9.5749   9.9507   9.9553  12.2731  13.6148
    15.6256  16.0506  25.9442  27.3765  27.6791  27.8540

     the Fermi energy is    22.4932 ev

!    total energy              =    -485.19642813 Ry
     estimated scf accuracy    <       0.00000128 Ry

     The total energy is the sum of the following terms:
     one-electron contribution =    -204.64215455 Ry
     hartree contribution      =     118.63467255 Ry
     xc contribution           =     -47.09809198 Ry
     ewald contribution        =    -352.09085415 Ry

     convergence has been achieved in   5 iterations

     Forces acting on atoms (cartesian axes, Ry/au):

     atom    1 type  1   force =     0.00000000    0.00000000   -0.00000000
     atom    2 type  2   force =    -0.00000000   -0.00000000    0.00000000

     Total force =     0.000000     Total SCF correction =     0.000000


     Computing stress (Cartesian axis) and pressure

          total   stress  (Ry/bohr**3)                   (kbar)     P=     1204.51
   0.00818809  -0.00000000   0.00000000         1204.51       -0.00        0.00
  -0.00000000   0.00818809  -0.00000000           -0.00     1204.51       -0.00
   0.00000000  -0.00000000   0.00818809            0.00       -0.00     1204.51


     Writing all to output data dir ./tmp/CdTe.save/ :
     XML data file, charge density, pseudopotentials, collected wavefunctions

     init_run     :      0.28s CPU      0.30s WALL (       1 calls)
     electrons    :      5.00s CPU      5.11s WALL (       1 calls)
     forces       :      0.06s CPU      0.06s WALL (       1 calls)
     stress       :      0.25s CPU      0.26s WALL (       1 calls)

     Called by init_run:
     wfcinit      :      0.20s CPU      0.21s WALL (       1 calls)
     potinit      :      0.03s CPU      0.04s WALL (       1 calls)
     hinit0       :      0.04s CPU      0.04s WALL (       1 calls)

     Called by electrons:
     c_bands      :      4.38s CPU      4.47s WALL (       6 calls)
     sum_band     :      0.53s CPU      0.54s WALL (       6 calls)
     v_of_rho     :      0.09s CPU      0.10s WALL (       6 calls)
     mix_rho      :      0.01s CPU      0.01s WALL (       6 calls)

     Called by c_bands:
     init_us_2    :      0.06s CPU      0.06s WALL (     120 calls)
     cegterg      :      4.29s CPU      4.38s WALL (      48 calls)

     Called by *egterg:
     cdiaghg      :      0.07s CPU      0.07s WALL (     203 calls)
     h_psi        :      3.20s CPU      3.29s WALL (     219 calls)
     g_psi        :      0.02s CPU      0.02s WALL (     163 calls)

     Called by h_psi:
     h_psi:calbec :      0.28s CPU      0.28s WALL (     219 calls)
     vloc_psi     :      2.65s CPU      2.73s WALL (     219 calls)
                                        0.00s GPU  (     219 calls)
     add_vuspsi   :      0.26s CPU      0.26s WALL (     219 calls)

     General routines
     calbec       :      0.49s CPU      0.50s WALL (     355 calls)
     fft          :      0.04s CPU      0.04s WALL (      68 calls)
     ffts         :      0.00s CPU      0.00s WALL (       6 calls)
     fftw         :      2.69s CPU      2.78s WALL (    8416 calls)


     PWSCF        :      5.61s CPU      5.76s WALL


   This run was terminated on:  19:14:59  11Jan2026            

=------------------------------------------------------------------------------=
   JOB DONE.
=------------------------------------------------------------------------------=
