
     Program PWSCF v.7.5 starts on 11Jan2026 at 19:15:32 

     This program is part of the open-source Quantum ESPRESSO suite
     for quantum simulation of materials; please cite
         "P. Giannozzi et al., J. Phys.:Condens. Matter 21 395502 (2009);
         "P. Giannozzi et al., J. Phys.:Condens. Matter 29 465901 (2017);
         "P. Giannozzi et al., J. Chem. Phys. 152 154105 (2020);
          URL http://www.quantum-espresso.org", 
     in publications or presentations arising from this work. More details at
     http://www.quantum-espresso.org/quote

     Serial version
     719 MiB available memory on the printing compute node when the environment starts

     Waiting for input...
     Reading input from standard input

     Current dimensions of program PWSCF are:
     Max number of different atomic species (ntypx) = 10
     Max number of k-points (npk) =  40000
     Max angular momentum in pseudopotentials (lmaxx) =  4
     Message from routine iosys:
     BEWARE:  force calculation with tetrahedra (not recommanded)
     Message from routine iosys:
     BEWARE: stress calculation with tetrahedra (not recommanded)
     [opt_tetra]  Optimized tetrahedron method is used.


     G-vector sticks info
     --------------------
     sticks:   dense  smooth     PW     G-vecs:    dense   smooth      PW
     Sum         955     955    295                19795    19795    3287

     Using Slab Decomposition



     bravais-lattice index     =            2
     lattice parameter (alat)  =      10.0000  a.u.
     unit-cell volume          =     250.0000 (a.u.)^3
     number of atoms/cell      =            2
     number of atomic types    =            2
     number of electrons       =        36.00
     number of Kohn-Sham states=           22
     kinetic-energy cutoff     =      70.0000  Ry
     charge density cutoff     =     280.0000  Ry
     scf convergence threshold =      1.0E-05
     mixing beta               =       0.7000
     number of iterations used =            8  plain     mixing
     Exchange-correlation= PBE
                           (   1   4   3   4   0   0   0)

     celldm(1)=  10.000000  celldm(2)=   0.000000  celldm(3)=   0.000000
     celldm(4)=   0.000000  celldm(5)=   0.000000  celldm(6)=   0.000000

     crystal axes: (cart. coord. in units of alat)
               a(1) = (  -0.500000   0.000000   0.500000 )  
               a(2) = (   0.000000   0.500000   0.500000 )  
               a(3) = (  -0.500000   0.500000   0.000000 )  

     reciprocal axes: (cart. coord. in units 2 pi/alat)
               b(1) = ( -1.000000 -1.000000  1.000000 )  
               b(2) = (  1.000000  1.000000  1.000000 )  
               b(3) = ( -1.000000  1.000000 -1.000000 )  


     PseudoPot. # 1 for Cd read from file:
     ./PSEUDO/Cd_ONCV_PBE-1.2.upf
     MD5 check sum: 810a600e5a5ac944c8c8f48f0d721646
     Pseudo is Norm-conserving, Zval = 20.0
     Generated using ONCVPSP code by D. R. Hamann
     Using radial grid of  602 points,  6 beta functions with: 
                l(1) =   0
                l(2) =   0
                l(3) =   1
                l(4) =   1
                l(5) =   2
                l(6) =   2

     PseudoPot. # 2 for Te read from file:
     ./PSEUDO/Te_ONCV_PBE-1.2.upf
     MD5 check sum: dd4de4dac1e38587f63aaf3700bb29d3
     Pseudo is Norm-conserving, Zval = 16.0
     Generated using ONCVPSP code by D. R. Hamann
     Using radial grid of  602 points,  6 beta functions with: 
                l(1) =   0
                l(2) =   0
                l(3) =   1
                l(4) =   1
                l(5) =   2
                l(6) =   2

     atomic species   valence    mass     pseudopotential
     Cd               20.00   112.40000     Cd( 1.00)
     Te               16.00   127.60000     Te( 1.00)

     24 Sym. Ops. (no inversion) found



   Cartesian axes

     site n.     atom                  positions (alat units)
         1        Cd     tau(   1) = (   0.0000000   0.0000000   0.0000000  )
         2        Te     tau(   2) = (  -0.2500000   0.2500000   0.2500000  )

     number of k points=    47 (tetrahedron method)
                       cart. coord. in units 2pi/alat
        k(    1) = (   0.0000000   0.0000000   0.0000000), wk =   0.0020000
        k(    2) = (  -0.1000000   0.1000000  -0.1000000), wk =   0.0160000
        k(    3) = (  -0.2000000   0.2000000  -0.2000000), wk =   0.0160000
        k(    4) = (  -0.3000000   0.3000000  -0.3000000), wk =   0.0160000
        k(    5) = (  -0.4000000   0.4000000  -0.4000000), wk =   0.0160000
        k(    6) = (   0.5000000  -0.5000000   0.5000000), wk =   0.0080000
        k(    7) = (   0.0000000   0.2000000   0.0000000), wk =   0.0120000
        k(    8) = (  -0.1000000   0.3000000  -0.1000000), wk =   0.0480000
        k(    9) = (  -0.2000000   0.4000000  -0.2000000), wk =   0.0480000
        k(   10) = (  -0.3000000   0.5000000  -0.3000000), wk =   0.0480000
        k(   11) = (   0.6000000  -0.4000000   0.6000000), wk =   0.0480000
        k(   12) = (   0.5000000  -0.3000000   0.5000000), wk =   0.0480000
        k(   13) = (   0.4000000  -0.2000000   0.4000000), wk =   0.0480000
        k(   14) = (   0.3000000  -0.1000000   0.3000000), wk =   0.0480000
        k(   15) = (   0.2000000   0.0000000   0.2000000), wk =   0.0240000
        k(   16) = (   0.0000000   0.4000000   0.0000000), wk =   0.0120000
        k(   17) = (  -0.1000000   0.5000000  -0.1000000), wk =   0.0480000
        k(   18) = (  -0.2000000   0.6000000  -0.2000000), wk =   0.0480000
        k(   19) = (   0.7000000  -0.3000000   0.7000000), wk =   0.0480000
        k(   20) = (   0.6000000  -0.2000000   0.6000000), wk =   0.0480000
        k(   21) = (   0.5000000  -0.1000000   0.5000000), wk =   0.0480000
        k(   22) = (   0.4000000   0.0000000   0.4000000), wk =   0.0240000
        k(   23) = (   0.0000000   0.6000000   0.0000000), wk =   0.0120000
        k(   24) = (  -0.1000000   0.7000000  -0.1000000), wk =   0.0480000
        k(   25) = (   0.8000000  -0.2000000   0.8000000), wk =   0.0480000
        k(   26) = (   0.7000000  -0.1000000   0.7000000), wk =   0.0480000
        k(   27) = (   0.6000000   0.0000000   0.6000000), wk =   0.0240000
        k(   28) = (   0.0000000   0.8000000   0.0000000), wk =   0.0120000
        k(   29) = (   0.9000000  -0.1000000   0.9000000), wk =   0.0480000
        k(   30) = (   0.8000000   0.0000000   0.8000000), wk =   0.0240000
        k(   31) = (   0.0000000  -1.0000000   0.0000000), wk =   0.0060000
        k(   32) = (  -0.2000000   0.4000000   0.0000000), wk =   0.0480000
        k(   33) = (  -0.3000000   0.5000000  -0.1000000), wk =   0.0960000
        k(   34) = (   0.6000000  -0.4000000   0.8000000), wk =   0.0960000
        k(   35) = (   0.5000000  -0.3000000   0.7000000), wk =   0.0480000
        k(   36) = (  -0.2000000   0.6000000   0.0000000), wk =   0.0480000
        k(   37) = (   0.7000000  -0.3000000   0.9000000), wk =   0.0960000
        k(   38) = (   0.6000000  -0.2000000   0.8000000), wk =   0.0960000
        k(   39) = (   0.5000000  -0.1000000   0.7000000), wk =   0.0960000
        k(   40) = (   0.4000000   0.0000000   0.6000000), wk =   0.0480000
        k(   41) = (   0.8000000  -0.2000000   1.0000000), wk =   0.0480000
        k(   42) = (   0.7000000  -0.1000000   0.9000000), wk =   0.0960000
        k(   43) = (   0.6000000   0.0000000   0.8000000), wk =   0.0480000
        k(   44) = (  -0.2000000  -1.0000000   0.0000000), wk =   0.0240000
        k(   45) = (   0.6000000  -0.2000000   1.0000000), wk =   0.0480000
        k(   46) = (   0.5000000  -0.1000000   0.9000000), wk =   0.0480000
        k(   47) = (  -0.4000000  -1.0000000   0.0000000), wk =   0.0240000

     Dense  grid:    19795 G-vectors     FFT dimensions: (  40,  40,  40)

     Estimated max dynamical RAM per process >      60.53 MB

     Initial potential from superposition of free atoms

     starting charge      35.9267, renormalised to      36.0000
     Starting wfcs are random

     total cpu time spent up to now is        1.4 secs

     Self-consistent Calculation

     iteration #  1     ecut=    70.00 Ry     beta= 0.70
     Davidson diagonalization with overlap
     ethr =  1.00E-02,  avg # of iterations =  9.2

     Threshold (ethr) on eigenvalues was too large:
     Diagonalizing with lowered threshold

     Davidson diagonalization with overlap
     ethr =  2.50E-04,  avg # of iterations =  2.6

     total cpu time spent up to now is       15.9 secs

     total energy              =    -485.18317278 Ry
     estimated scf accuracy    <       0.07680708 Ry

     iteration #  2     ecut=    70.00 Ry     beta= 0.70
     Davidson diagonalization with overlap
     ethr =  2.13E-04,  avg # of iterations =  2.3

     total cpu time spent up to now is       19.9 secs

     total energy              =    -485.20545445 Ry
     estimated scf accuracy    <       0.01797515 Ry

     iteration #  3     ecut=    70.00 Ry     beta= 0.70
     Davidson diagonalization with overlap
     ethr =  4.99E-05,  avg # of iterations =  2.0

     total cpu time spent up to now is       23.8 secs

     total energy              =    -485.20943096 Ry
     estimated scf accuracy    <       0.00020665 Ry

     iteration #  4     ecut=    70.00 Ry     beta= 0.70
     Davidson diagonalization with overlap
     ethr =  5.74E-07,  avg # of iterations =  2.9

     total cpu time spent up to now is       27.9 secs

     total energy              =    -485.20945156 Ry
     estimated scf accuracy    <       0.00001820 Ry

     iteration #  5     ecut=    70.00 Ry     beta= 0.70
     Davidson diagonalization with overlap
     ethr =  5.06E-08,  avg # of iterations =  2.0

     total cpu time spent up to now is       32.0 secs

     End of self-consistent calculation

          k = 0.0000 0.0000 0.0000 (  2445 PWs)   bands (ev):

   -83.5253 -44.7863 -44.7863 -44.7863 -17.1013 -17.1013 -17.1013 -17.0144
   -17.0144   4.9585   9.0216   9.0216   9.0216  10.0613  10.0613  21.9890
    21.9890  21.9890  24.2678  25.4291  25.4291  25.4291

          k =-0.1000 0.1000-0.1000 (  2499 PWs)   bands (ev):

   -83.5252 -44.7866 -44.7863 -44.7863 -17.1022 -17.1013 -17.1013 -17.0140
   -17.0140   5.0691   9.0480   9.0509   9.0509  10.0542  10.0542  20.4615
    21.6520  21.6520  24.5975  25.8044  25.8044  26.0805

          k =-0.2000 0.2000-0.2000 (  2490 PWs)   bands (ev):

   -83.5252 -44.7871 -44.7864 -44.7864 -17.1046 -17.1011 -17.1011 -17.0130
   -17.0130   5.3635   9.1236   9.1236   9.1775  10.0429  10.0429  18.0451
    20.9746  20.9746  24.4377  26.3937  26.3937  27.3815

          k =-0.3000 0.3000-0.3000 (  2472 PWs)   bands (ev):

   -83.5252 -44.7878 -44.7864 -44.7864 -17.1075 -17.1009 -17.1009 -17.0119
   -17.0119   5.7263   9.2009   9.2009   9.5506  10.0482  10.0482  15.6811
    20.3254  20.3254  24.2023  26.4900  26.4900  28.0053

          k =-0.4000 0.4000-0.4000 (  2473 PWs)   bands (ev):

   -83.5251 -44.7884 -44.7864 -44.7864 -17.1100 -17.1007 -17.1007 -17.0110
   -17.0110   6.0011   9.2491   9.2491  10.0729  10.0729  10.3224  13.5953
    19.8750  19.8750  24.0319  26.3013  26.3013  27.9299

          k = 0.5000-0.5000 0.5000 (  2488 PWs)   bands (ev):

   -83.5251 -44.7886 -44.7865 -44.7865 -17.1109 -17.1006 -17.1006 -17.0107
   -17.0107   6.0971   9.2634   9.2634  10.0879  10.0879  11.1914  12.2744
    19.7141  19.7141  23.9704  26.2063  26.2063  27.8584

          k = 0.0000 0.2000 0.0000 (  2489 PWs)   bands (ev):

   -83.5252 -44.7866 -44.7864 -44.7864 -17.1030 -17.1010 -17.1010 -17.0144
   -17.0134   5.1060   9.0261   9.0761   9.0761  10.0336  10.0703  20.9179
    21.0405  21.0405  24.7107  25.3144  26.4742  26.4742

          k =-0.1000 0.3000-0.1000 (  2493 PWs)   bands (ev):

   -83.5252 -44.7870 -44.7864 -44.7864 -17.1049 -17.1010 -17.1007 -17.0140
   -17.0122   5.3394   9.0737   9.1495   9.1640  10.0126  10.0747  18.8394
    20.2889  20.7649  24.7025  25.6680  26.9654  27.2592

          k =-0.2000 0.4000-0.2000 (  2487 PWs)   bands (ev):

   -83.5252 -44.7876 -44.7865 -44.7865 -17.1073 -17.1014 -17.1005 -17.0131
   -17.0109   5.6805   9.1708   9.2337   9.4044  10.0288  10.0808  16.4994
    19.6772  20.0994  24.6984  26.0324  27.2357  27.4678

          k =-0.3000 0.5000-0.3000 (  2476 PWs)   bands (ev):

   -83.5251 -44.7882 -44.7866 -44.7865 -17.1094 -17.1016 -17.1003 -17.0120
   -17.0101   5.9819   9.2370   9.2898   9.8446  10.0928  10.2528  14.3404
    19.3365  19.4148  24.4892  25.9389  27.1387  28.5152

          k = 0.6000-0.4000 0.6000 (  2466 PWs)   bands (ev):

   -83.5251 -44.7885 -44.7866 -44.7865 -17.1105 -17.1016 -17.1004 -17.0111
   -17.0100   6.1306   9.2656   9.3068  10.0064  10.0896  11.1165  12.6404
    18.9109  19.3349  24.3933  25.8930  26.7714  29.0701

          k = 0.5000-0.3000 0.5000 (  2467 PWs)   bands (ev):

   -83.5251 -44.7884 -44.7866 -44.7865 -17.1101 -17.1014 -17.1007 -17.0107
   -17.0106   6.0995   9.2696   9.2914  10.0230  10.0555  10.7912  13.1252
    18.6965  19.6801  24.5007  25.9749  26.5608  29.1465

          k = 0.4000-0.2000 0.4000 (  2471 PWs)   bands (ev):

   -83.5251 -44.7880 -44.7866 -44.7864 -17.1083 -17.1012 -17.1011 -17.0117
   -17.0110   5.8919   9.2424   9.2470   9.7417  10.0154  10.1617  15.0367
    18.8147  20.3057  24.7801  26.2056  26.4910  28.6524

          k = 0.3000-0.1000 0.3000 (  2487 PWs)   bands (ev):

   -83.5252 -44.7874 -44.7865 -44.7864 -17.1059 -17.1014 -17.1010 -17.0129
   -17.0119   5.5601   9.1634   9.1844   9.2996  10.0055  10.0846  17.2730
    19.2568  21.0617  25.1097  26.3000  26.5175  27.3133

          k = 0.2000 0.0000 0.2000 (  2481 PWs)   bands (ev):

   -83.5252 -44.7868 -44.7864 -44.7863 -17.1036 -17.1014 -17.1009 -17.0138
   -17.0131   5.2413   9.0862   9.0870   9.1242  10.0264  10.0659  19.4137
    20.1446  21.6595  25.1472  25.8282  25.9278  26.9645

          k = 0.0000 0.4000 0.0000 (  2501 PWs)   bands (ev):

   -83.5252 -44.7872 -44.7865 -44.7865 -17.1072 -17.1003 -17.1003 -17.0145
   -17.0107   5.4978   9.0720   9.2306   9.2306   9.9951  10.0941  19.0810
    19.4759  19.4759  23.6786  25.4268  28.3508  28.3508

          k =-0.1000 0.5000-0.1000 (  2484 PWs)   bands (ev):

   -83.5251 -44.7877 -44.7866 -44.7865 -17.1095 -17.1004 -17.0999 -17.0143
   -17.0092   5.7759   9.1564   9.3297   9.3712  10.0457  10.1060  17.2428
    18.8221  18.9548  23.7584  25.1961  28.2686  28.9558

          k =-0.2000 0.6000-0.2000 (  2459 PWs)   bands (ev):

   -83.5251 -44.7881 -44.7867 -44.7866 -17.1106 -17.1015 -17.0998 -17.0134
   -17.0083   6.0520   9.2450   9.4014   9.6188  10.1122  10.3394  15.2011
    18.1729  18.4723  23.8817  26.1017  28.0701  28.6960

          k = 0.7000-0.3000 0.7000 (  2469 PWs)   bands (ev):

   -83.5251 -44.7883 -44.7869 -44.7865 -17.1105 -17.1029 -17.0999 -17.0122
   -17.0082   6.2165   9.2774   9.4248   9.8319  10.0963  11.0931  13.4342
    17.4509  18.5016  23.9091  27.0429  28.1733  28.7593

          k = 0.6000-0.2000 0.6000 (  2484 PWs)   bands (ev):

   -83.5251 -44.7883 -44.7871 -44.7865 -17.1094 -17.1038 -17.1003 -17.0112
   -17.0090   6.2337   9.2873   9.4041   9.9332  10.0480  11.3459  13.0533
    16.9773  18.9138  24.1397  27.0925  27.7338  30.4006

          k = 0.5000-0.1000 0.5000 (  2468 PWs)   bands (ev):

   -83.5251 -44.7880 -44.7870 -44.7865 -17.1082 -17.1033 -17.1009 -17.0108
   -17.0104   6.1034   9.2872   9.3426   9.8689   9.9972  10.5289  14.6251
    16.8673  19.6275  24.6254  27.0213  27.3959  29.1049

          k = 0.4000 0.0000 0.4000 (  2485 PWs)   bands (ev):

   -83.5251 -44.7877 -44.7868 -44.7864 -17.1072 -17.1019 -17.1013 -17.0119
   -17.0110   5.8486   9.2500   9.2570   9.5521   9.9825  10.1781  16.3809
    17.3991  20.4608  25.2951  26.8016  26.9040  27.5002

          k = 0.0000 0.6000 0.0000 (  2469 PWs)   bands (ev):

   -83.5251 -44.7880 -44.7866 -44.7866 -17.1123 -17.0994 -17.0994 -17.0149
   -17.0074   5.9723   9.1783   9.4507   9.4507  10.1238  10.1472  16.9680
    18.0924  18.0924  22.9484  24.2788  30.3911  30.3911

          k =-0.1000 0.7000-0.1000 (  2460 PWs)   bands (ev):

   -83.5251 -44.7884 -44.7867 -44.7866 -17.1138 -17.0998 -17.0992 -17.0147
   -17.0062   6.1810   9.2377   9.5444   9.5776  10.1317  10.4966  15.6139
    17.2860  17.6676  23.1227  24.3007  30.3979  30.6289

          k = 0.8000-0.2000 0.8000 (  2460 PWs)   bands (ev):

   -83.5251 -44.7884 -44.7870 -44.7866 -17.1133 -17.1015 -17.0993 -17.0137
   -17.0060   6.3180   9.2797   9.5781   9.7142  10.1127  11.2089  14.1830
    16.3004  17.6450  23.2876  25.6728  30.0061  30.0166

          k = 0.7000-0.1000 0.7000 (  2469 PWs)   bands (ev):

   -83.5251 -44.7882 -44.7874 -44.7866 -17.1109 -17.1040 -17.0997 -17.0124
   -17.0070   6.3494   9.2936   9.5484   9.8413  10.0608  11.8077  13.3914
    15.5742  18.0368  23.5165  27.5854  29.3059  29.7709

          k = 0.6000 0.0000 0.6000 (  2472 PWs)   bands (ev):

   -83.5251 -44.7879 -44.7876 -44.7865 -17.1078 -17.1057 -17.1004 -17.0112
   -17.0086   6.2732   9.2987   9.4611   9.9032  10.0112  11.2005  14.1598
    15.5131  18.7585  23.9701  28.3809  28.4981  29.6123

          k = 0.0000 0.8000 0.0000 (  2450 PWs)   bands (ev):

   -83.5251 -44.7887 -44.7867 -44.7867 -17.1162 -17.0987 -17.0987 -17.0155
   -17.0047   6.3120   9.2194   9.6598   9.6598  10.1480  10.8415  14.8730
    17.1430  17.1430  22.6197  23.4931  32.5591  32.5591

          k = 0.9000-0.1000 0.9000 (  2476 PWs)   bands (ev):

   -83.5251 -44.7888 -44.7868 -44.7867 -17.1164 -17.0994 -17.0987 -17.0151
   -17.0043   6.3950   9.2388   9.7035   9.7228  10.1403  11.4431  13.9879
    16.4092  17.0263  22.8481  23.8527  31.9969  32.5188

          k = 0.8000 0.0000 0.8000 (  2472 PWs)   bands (ev):

   -83.5250 -44.7885 -44.7871 -44.7867 -17.1143 -17.1015 -17.0991 -17.0139
   -17.0052   6.4081   9.2756   9.6636   9.7697  10.0994  11.9554  13.5585
    15.4545  17.3500  23.1017  25.5192  30.8155  31.6342

          k = 0.0000-1.0000 0.0000 (  2466 PWs)   bands (ev):

   -83.5250 -44.7889 -44.7867 -44.7867 -17.1177 -17.0985 -17.0985 -17.0157
   -17.0036   6.4230   9.2127   9.7494   9.7494  10.1573  11.6104  13.6253
    16.8006  16.8006  22.5534  23.2121  33.4543  34.3013

          k =-0.2000 0.4000 0.0000 (  2494 PWs)   bands (ev):

   -83.5252 -44.7874 -44.7866 -44.7864 -17.1070 -17.1008 -17.1008 -17.0137
   -17.0109   5.5968   9.1394   9.2317   9.2928  10.0035  10.0960  17.8066
    18.6887  20.4175  24.8123  25.8714  26.7033  28.1026

          k =-0.3000 0.5000-0.1000 (  2476 PWs)   bands (ev):

   -83.5251 -44.7879 -44.7867 -44.7865 -17.1086 -17.1017 -17.1006 -17.0128
   -17.0098   5.9060   9.2365   9.3027   9.5773  10.0387  10.1863  15.8611
    17.9344  19.7352  25.0327  26.0783  26.7820  28.5481

          k = 0.6000-0.4000 0.8000 (  2469 PWs)   bands (ev):

   -83.5251 -44.7882 -44.7869 -44.7865 -17.1095 -17.1027 -17.1003 -17.0117
   -17.0093   6.1346   9.2810   9.3531   9.8609  10.0688  10.6981  13.9076
    17.6926  19.0621  24.8551  25.8493  27.7824  29.1312

          k = 0.5000-0.3000 0.7000 (  2478 PWs)   bands (ev):

   -83.5251 -44.7884 -44.7869 -44.7865 -17.1098 -17.1032 -17.1002 -17.0112
   -17.0092   6.2138   9.2878   9.3724   9.9492  10.0627  11.4293  12.7129
    17.6609  18.7673  24.7648  25.7620  27.9202  30.4402

          k =-0.2000 0.6000 0.0000 (  2472 PWs)   bands (ev):

   -83.5251 -44.7880 -44.7867 -44.7866 -17.1113 -17.1005 -17.0998 -17.0140
   -17.0078   6.0194   9.2372   9.4015   9.5361  10.1005  10.2525  16.2561
    17.4417  18.5350  23.9915  24.9352  28.2122  30.4176

          k = 0.7000-0.3000 0.9000 (  2463 PWs)   bands (ev):

   -83.5251 -44.7882 -44.7870 -44.7866 -17.1115 -17.1022 -17.0996 -17.0131
   -17.0073   6.2208   9.3010   9.4502   9.7216  10.0937  10.7881  14.7071
    16.7573  17.9352  24.2815  25.9152  27.7371  30.5239

          k = 0.6000-0.2000 0.8000 (  2467 PWs)   bands (ev):

   -83.5251 -44.7882 -44.7873 -44.7866 -17.1101 -17.1044 -17.0997 -17.0121
   -17.0075   6.3137   9.3110   9.4791   9.8618  10.0526  11.5873  13.3541
    16.3289  17.7941  24.4218  26.8758  28.1774  30.0445

          k = 0.5000-0.1000 0.7000 (  2471 PWs)   bands (ev):

   -83.5251 -44.7881 -44.7874 -44.7866 -17.1086 -17.1053 -17.1000 -17.0115
   -17.0083   6.2845   9.3179   9.4430   9.8968  10.0214  11.3176  13.7677
    16.0449  18.2297  24.7724  26.6788  28.3543  30.0462

          k = 0.4000 0.0000 0.6000 (  2461 PWs)   bands (ev):

   -83.5251 -44.7880 -44.7871 -44.7865 -17.1089 -17.1034 -17.1004 -17.0120
   -17.0089   6.1371   9.3249   9.3486   9.7783  10.0347  10.5671  15.1370
    16.3453  18.9874  25.3354  26.2534  26.9555  29.9970

          k = 0.8000-0.2000 1.0000 (  2461 PWs)   bands (ev):

   -83.5251 -44.7885 -44.7869 -44.7867 -17.1146 -17.1004 -17.0990 -17.0145
   -17.0054   6.3207   9.2686   9.5812   9.7088  10.1236  11.0310  14.6848
    16.6226  17.0579  23.5267  24.2945  29.9042  32.4251

          k = 0.7000-0.1000 0.9000 (  2469 PWs)   bands (ev):

   -83.5251 -44.7884 -44.7872 -44.7867 -17.1132 -17.1025 -17.0991 -17.0134
   -17.0057   6.3910   9.3001   9.5945   9.8010  10.0798  11.7747  13.7961
    15.7369  16.9432  23.9076  25.6602  29.2538  31.0713

          k = 0.6000 0.0000 0.8000 (  2480 PWs)   bands (ev):

   -83.5251 -44.7881 -44.7876 -44.7866 -17.1102 -17.1052 -17.0995 -17.0122
   -17.0069   6.3778   9.3156   9.5491   9.8802  10.0206  11.9433  13.6210
    15.2243  17.4274  24.2544  27.5515  28.7022  29.2547

          k =-0.2000-1.0000 0.0000 (  2472 PWs)   bands (ev):

   -83.5250 -44.7887 -44.7869 -44.7867 -17.1159 -17.1003 -17.0987 -17.0147
   -17.0044   6.4206   9.2583   9.6770   9.7775  10.1215  11.8201  13.6154
    16.3684  16.5039  23.3857  24.0850  31.1951  32.1997

          k = 0.6000-0.2000 1.0000 (  2460 PWs)   bands (ev):

   -83.5251 -44.7882 -44.7874 -44.7866 -17.1106 -17.1045 -17.0994 -17.0124
   -17.0069   6.3447   9.3420   9.4867   9.8472  10.0383  11.4812  14.1532
    15.7418  17.1312  25.4053  26.1957  27.2665  30.5823

          k = 0.5000-0.1000 0.9000 (  2468 PWs)   bands (ev):

   -83.5251 -44.7880 -44.7876 -44.7867 -17.1091 -17.1066 -17.0993 -17.0120
   -17.0069   6.3885   9.3407   9.5275   9.9271   9.9723  12.0234  13.5850
    15.5422  16.7339  25.5938  26.7274  28.1309  28.6443

          k =-0.4000-1.0000 0.0000 (  2470 PWs)   bands (ev):

   -83.5250 -44.7882 -44.7875 -44.7867 -17.1113 -17.1049 -17.0990 -17.0126
   -17.0061   6.4167   9.3312   9.5780   9.8740  10.0153  12.1864  13.5974
    15.7164  16.0937  25.2636  26.2199  28.4304  29.0874

     the Fermi energy is    22.3345 ev

!    total energy              =    -485.20945563 Ry
     estimated scf accuracy    <       0.00000168 Ry

     The total energy is the sum of the following terms:
     one-electron contribution =    -204.57946793 Ry
     hartree contribution      =     118.55014000 Ry
     xc contribution           =     -47.08927356 Ry
     ewald contribution        =    -352.09085415 Ry

     convergence has been achieved in   5 iterations

     Forces acting on atoms (cartesian axes, Ry/au):

     atom    1 type  1   force =     0.00000000    0.00000000    0.00000000
     atom    2 type  2   force =     0.00000000    0.00000000    0.00000000

     Total force =     0.000000     Total SCF correction =     0.000000


     Computing stress (Cartesian axis) and pressure

          total   stress  (Ry/bohr**3)                   (kbar)     P=     1192.55
   0.00810682   0.00000000   0.00000000         1192.55        0.00        0.00
  -0.00000000   0.00810682   0.00000000           -0.00     1192.55        0.00
   0.00000000  -0.00000000   0.00810682            0.00       -0.00     1192.55


     Writing all to output data dir ./tmp/CdTe.save/ :
     XML data file, charge density, pseudopotentials, collected wavefunctions

     init_run     :      1.28s CPU      1.33s WALL (       1 calls)
     electrons    :     29.99s CPU     30.64s WALL (       1 calls)
     forces       :      0.36s CPU      0.37s WALL (       1 calls)
     stress       :      1.40s CPU      1.41s WALL (       1 calls)

     Called by init_run:
     wfcinit      :      1.19s CPU      1.23s WALL (       1 calls)
     potinit      :      0.04s CPU      0.04s WALL (       1 calls)
     hinit0       :      0.04s CPU      0.04s WALL (       1 calls)

     Called by electrons:
     c_bands      :     26.90s CPU     27.46s WALL (       6 calls)
     sum_band     :      3.01s CPU      3.07s WALL (       6 calls)
     v_of_rho     :      0.09s CPU      0.11s WALL (       6 calls)
     mix_rho      :      0.00s CPU      0.01s WALL (       6 calls)

     Called by c_bands:
     init_us_2    :      0.35s CPU      0.36s WALL (     705 calls)
     cegterg      :     26.36s CPU     26.91s WALL (     282 calls)

     Called by *egterg:
     cdiaghg      :      0.45s CPU      0.46s WALL (    1223 calls)
     h_psi        :     19.74s CPU     20.26s WALL (    1317 calls)
     g_psi        :      0.10s CPU      0.11s WALL (     988 calls)

     Called by h_psi:
     h_psi:calbec :      1.71s CPU      1.73s WALL (    1317 calls)
     vloc_psi     :     16.37s CPU     16.85s WALL (    1317 calls)
                                        0.00s GPU  (    1317 calls)
     add_vuspsi   :      1.59s CPU      1.61s WALL (    1317 calls)

     General routines
     calbec       :      3.03s CPU      3.07s WALL (    2116 calls)
     fft          :      0.04s CPU      0.04s WALL (      68 calls)
     ffts         :      0.00s CPU      0.00s WALL (       6 calls)
     fftw         :     16.69s CPU     17.27s WALL (   49846 calls)


     PWSCF        :     33.07s CPU     33.81s WALL


   This run was terminated on:  19:16: 6  11Jan2026            

=------------------------------------------------------------------------------=
   JOB DONE.
=------------------------------------------------------------------------------=
