
     Program PWSCF v.7.5 starts on 11Jan2026 at 19: 7:23 

     This program is part of the open-source Quantum ESPRESSO suite
     for quantum simulation of materials; please cite
         "P. Giannozzi et al., J. Phys.:Condens. Matter 21 395502 (2009);
         "P. Giannozzi et al., J. Phys.:Condens. Matter 29 465901 (2017);
         "P. Giannozzi et al., J. Chem. Phys. 152 154105 (2020);
          URL http://www.quantum-espresso.org", 
     in publications or presentations arising from this work. More details at
     http://www.quantum-espresso.org/quote

     Serial version
     703 MiB available memory on the printing compute node when the environment starts

     Waiting for input...
     Reading input from standard input

     Current dimensions of program PWSCF are:
     Max number of different atomic species (ntypx) = 10
     Max number of k-points (npk) =  40000
     Max angular momentum in pseudopotentials (lmaxx) =  4
     Message from routine iosys:
     BEWARE:  force calculation with tetrahedra (not recommanded)
     Message from routine iosys:
     BEWARE: stress calculation with tetrahedra (not recommanded)
     [opt_tetra]  Optimized tetrahedron method is used.


     G-vector sticks info
     --------------------
     sticks:   dense  smooth     PW     G-vecs:    dense   smooth      PW
     Sum         559     559    169                 8609     8609    1471

     Using Slab Decomposition



     bravais-lattice index     =            2
     lattice parameter (alat)  =      10.0000  a.u.
     unit-cell volume          =     250.0000 (a.u.)^3
     number of atoms/cell      =            2
     number of atomic types    =            2
     number of electrons       =        36.00
     number of Kohn-Sham states=           22
     kinetic-energy cutoff     =      40.0000  Ry
     charge density cutoff     =     160.0000  Ry
     scf convergence threshold =      1.0E-05
     mixing beta               =       0.7000
     number of iterations used =            8  plain     mixing
     Exchange-correlation= PBE
                           (   1   4   3   4   0   0   0)

     celldm(1)=  10.000000  celldm(2)=   0.000000  celldm(3)=   0.000000
     celldm(4)=   0.000000  celldm(5)=   0.000000  celldm(6)=   0.000000

     crystal axes: (cart. coord. in units of alat)
               a(1) = (  -0.500000   0.000000   0.500000 )  
               a(2) = (   0.000000   0.500000   0.500000 )  
               a(3) = (  -0.500000   0.500000   0.000000 )  

     reciprocal axes: (cart. coord. in units 2 pi/alat)
               b(1) = ( -1.000000 -1.000000  1.000000 )  
               b(2) = (  1.000000  1.000000  1.000000 )  
               b(3) = ( -1.000000  1.000000 -1.000000 )  


     PseudoPot. # 1 for Cd read from file:
     ./PSEUDO/Cd_ONCV_PBE-1.2.upf
     MD5 check sum: 810a600e5a5ac944c8c8f48f0d721646
     Pseudo is Norm-conserving, Zval = 20.0
     Generated using ONCVPSP code by D. R. Hamann
     Using radial grid of  602 points,  6 beta functions with: 
                l(1) =   0
                l(2) =   0
                l(3) =   1
                l(4) =   1
                l(5) =   2
                l(6) =   2

     PseudoPot. # 2 for Te read from file:
     ./PSEUDO/Te_ONCV_PBE-1.2.upf
     MD5 check sum: dd4de4dac1e38587f63aaf3700bb29d3
     Pseudo is Norm-conserving, Zval = 16.0
     Generated using ONCVPSP code by D. R. Hamann
     Using radial grid of  602 points,  6 beta functions with: 
                l(1) =   0
                l(2) =   0
                l(3) =   1
                l(4) =   1
                l(5) =   2
                l(6) =   2

     atomic species   valence    mass     pseudopotential
     Cd               20.00   112.40000     Cd( 1.00)
     Te               16.00   127.60000     Te( 1.00)

     24 Sym. Ops. (no inversion) found



   Cartesian axes

     site n.     atom                  positions (alat units)
         1        Cd     tau(   1) = (   0.0000000   0.0000000   0.0000000  )
         2        Te     tau(   2) = (  -0.2500000   0.2500000   0.2500000  )

     number of k points=    29 (tetrahedron method)
                       cart. coord. in units 2pi/alat
        k(    1) = (   0.0000000   0.0000000   0.0000000), wk =   0.0039062
        k(    2) = (  -0.1250000   0.1250000  -0.1250000), wk =   0.0312500
        k(    3) = (  -0.2500000   0.2500000  -0.2500000), wk =   0.0312500
        k(    4) = (  -0.3750000   0.3750000  -0.3750000), wk =   0.0312500
        k(    5) = (   0.5000000  -0.5000000   0.5000000), wk =   0.0156250
        k(    6) = (   0.0000000   0.2500000   0.0000000), wk =   0.0234375
        k(    7) = (  -0.1250000   0.3750000  -0.1250000), wk =   0.0937500
        k(    8) = (  -0.2500000   0.5000000  -0.2500000), wk =   0.0937500
        k(    9) = (   0.6250000  -0.3750000   0.6250000), wk =   0.0937500
        k(   10) = (   0.5000000  -0.2500000   0.5000000), wk =   0.0937500
        k(   11) = (   0.3750000  -0.1250000   0.3750000), wk =   0.0937500
        k(   12) = (   0.2500000   0.0000000   0.2500000), wk =   0.0468750
        k(   13) = (   0.0000000   0.5000000   0.0000000), wk =   0.0234375
        k(   14) = (  -0.1250000   0.6250000  -0.1250000), wk =   0.0937500
        k(   15) = (   0.7500000  -0.2500000   0.7500000), wk =   0.0937500
        k(   16) = (   0.6250000  -0.1250000   0.6250000), wk =   0.0937500
        k(   17) = (   0.5000000   0.0000000   0.5000000), wk =   0.0468750
        k(   18) = (   0.0000000   0.7500000   0.0000000), wk =   0.0234375
        k(   19) = (   0.8750000  -0.1250000   0.8750000), wk =   0.0937500
        k(   20) = (   0.7500000   0.0000000   0.7500000), wk =   0.0468750
        k(   21) = (   0.0000000  -1.0000000   0.0000000), wk =   0.0117188
        k(   22) = (  -0.2500000   0.5000000   0.0000000), wk =   0.0937500
        k(   23) = (   0.6250000  -0.3750000   0.8750000), wk =   0.1875000
        k(   24) = (   0.5000000  -0.2500000   0.7500000), wk =   0.0937500
        k(   25) = (   0.7500000  -0.2500000   1.0000000), wk =   0.0937500
        k(   26) = (   0.6250000  -0.1250000   0.8750000), wk =   0.1875000
        k(   27) = (   0.5000000   0.0000000   0.7500000), wk =   0.0937500
        k(   28) = (  -0.2500000  -1.0000000   0.0000000), wk =   0.0468750
        k(   29) = (  -0.5000000  -1.0000000   0.0000000), wk =   0.0234375

     Dense  grid:     8609 G-vectors     FFT dimensions: (  30,  30,  30)

     Estimated max dynamical RAM per process >      20.60 MB

     Initial potential from superposition of free atoms

     starting charge      35.9267, renormalised to      36.0000
     Starting wfcs are random

     total cpu time spent up to now is        0.4 secs

     Self-consistent Calculation

     iteration #  1     ecut=    40.00 Ry     beta= 0.70
     Davidson diagonalization with overlap
     ethr =  1.00E-02,  avg # of iterations =  8.9

     Threshold (ethr) on eigenvalues was too large:
     Diagonalizing with lowered threshold

     Davidson diagonalization with overlap
     ethr =  2.51E-04,  avg # of iterations =  3.0

     total cpu time spent up to now is        4.2 secs

     total energy              =    -485.17333775 Ry
     estimated scf accuracy    <       0.07690693 Ry

     iteration #  2     ecut=    40.00 Ry     beta= 0.70
     Davidson diagonalization with overlap
     ethr =  2.14E-04,  avg # of iterations =  2.0

     total cpu time spent up to now is        5.4 secs

     total energy              =    -485.19545686 Ry
     estimated scf accuracy    <       0.01779174 Ry

     iteration #  3     ecut=    40.00 Ry     beta= 0.70
     Davidson diagonalization with overlap
     ethr =  4.94E-05,  avg # of iterations =  2.1

     total cpu time spent up to now is        6.4 secs

     total energy              =    -485.19942667 Ry
     estimated scf accuracy    <       0.00020568 Ry

     iteration #  4     ecut=    40.00 Ry     beta= 0.70
     Davidson diagonalization with overlap
     ethr =  5.71E-07,  avg # of iterations =  3.2

     total cpu time spent up to now is        7.6 secs

     total energy              =    -485.19944827 Ry
     estimated scf accuracy    <       0.00001776 Ry

     iteration #  5     ecut=    40.00 Ry     beta= 0.70
     Davidson diagonalization with overlap
     ethr =  4.93E-08,  avg # of iterations =  2.0

     total cpu time spent up to now is        8.6 secs

     End of self-consistent calculation

          k = 0.0000 0.0000 0.0000 (  1067 PWs)   bands (ev):

   -83.5218 -44.7833 -44.7833 -44.7833 -17.1174 -17.1174 -17.1174 -17.0297
   -17.0297   4.9696   9.0241   9.0241   9.0241  10.0644  10.0644  21.9906
    21.9906  21.9906  24.2808  25.4404  25.4404  25.4404

          k =-0.1250 0.1250-0.1250 (  1064 PWs)   bands (ev):

   -83.5217 -44.7836 -44.7833 -44.7833 -17.1173 -17.1173 -17.1170 -17.0288
   -17.0288   5.1399   9.0688   9.0688   9.0691  10.0541  10.0541  19.8793
    21.4974  21.4974  24.5980  25.9789  25.9789  26.4174

          k =-0.2500 0.2500-0.2500 (  1074 PWs)   bands (ev):

   -83.5217 -44.7844 -44.7833 -44.7833 -17.1228 -17.1169 -17.1169 -17.0301
   -17.0301   5.5574   9.1669   9.1669   9.3250  10.0455  10.0455  16.8432
    20.6351  20.6351  24.3284  26.5219  26.5219  27.8391

          k =-0.3750 0.3750-0.3750 (  1065 PWs)   bands (ev):

   -83.5216 -44.7852 -44.7834 -44.7834 -17.1242 -17.1154 -17.1154 -17.0286
   -17.0286   5.9589   9.2430   9.2430  10.0692  10.0692  10.0921  14.0841
    19.9650  19.9650  24.0793  26.3605  26.3605  27.9660

          k = 0.5000-0.5000 0.5000 (  1068 PWs)   bands (ev):

   -83.5216 -44.7856 -44.7834 -44.7834 -17.1279 -17.1162 -17.1162 -17.0274
   -17.0274   6.1082   9.2660   9.2660  10.0909  10.0909  11.1964  12.2760
    19.7159  19.7159  23.9833  26.2176  26.2176  27.8616

          k = 0.0000 0.2500 0.0000 (  1054 PWs)   bands (ev):

   -83.5217 -44.7836 -44.7833 -44.7833 -17.1183 -17.1146 -17.1146 -17.0293
   -17.0277   5.1970   9.0338   9.1087   9.1087  10.0242  10.0782  20.4988
    20.6582  20.6582  24.4639  25.5839  26.9268  26.9269

          k =-0.1250 0.3750-0.1250 (  1059 PWs)   bands (ev):

   -83.5217 -44.7842 -44.7834 -44.7834 -17.1206 -17.1164 -17.1154 -17.0301
   -17.0262   5.5330   9.1163   9.2132   9.2560  10.0107  10.0867  17.8624
    19.7477  20.1958  24.5383  25.8893  26.9942  27.7880

          k =-0.2500 0.5000-0.2500 (  1061 PWs)   bands (ev):

   -83.5216 -44.7850 -44.7835 -44.7834 -17.1239 -17.1169 -17.1152 -17.0287
   -17.0261   5.9387   9.2265   9.3038   9.6836  10.0988  10.1658  15.0712
    19.1867  19.3005  24.4759  26.1932  27.5977  27.8358

          k = 0.6250-0.3750 0.6250 (  1074 PWs)   bands (ev):

   -83.5216 -44.7854 -44.7836 -44.7834 -17.1270 -17.1190 -17.1161 -17.0286
   -17.0264   6.1592   9.2700   9.3330   9.9690  10.0936  11.1026  12.8173
    18.5635  19.1513  24.3768  26.0809  27.0735  29.4661

          k = 0.5000-0.2500 0.5000 (  1068 PWs)   bands (ev):

   -83.5216 -44.7853 -44.7837 -44.7834 -17.1249 -17.1178 -17.1167 -17.0274
   -17.0273   6.1118   9.2759   9.3073   9.9893  10.0432  10.6964  13.4771
    18.2564  19.6671  24.6180  26.1026  26.7578  29.5620

          k = 0.3750-0.1250 0.3750 (  1067 PWs)   bands (ev):

   -83.5216 -44.7847 -44.7836 -44.7833 -17.1233 -17.1171 -17.1171 -17.0297
   -17.0268   5.8073   9.2275   9.2401   9.5439  10.0010  10.1393  15.9843
    18.4841  20.5722  25.1454  26.3206  26.5849  28.0470

          k = 0.2500 0.0000 0.2500 (  1055 PWs)   bands (ev):

   -83.5217 -44.7840 -44.7834 -44.7833 -17.1175 -17.1169 -17.1160 -17.0282
   -17.0274   5.3943   9.1226   9.1361   9.1846  10.0153  10.0773  18.6124
    19.4332  21.4479  25.3932  26.0575  26.1720  26.9913

          k = 0.0000 0.5000 0.0000 (  1062 PWs)   bands (ev):

   -83.5217 -44.7846 -44.7835 -44.7835 -17.1239 -17.1164 -17.1164 -17.0319
   -17.0232   5.7506   9.1256   9.3387   9.3387  10.0274  10.1119  18.0515
    18.7446  18.7446  23.2715  24.8480  29.3662  29.3662

          k =-0.1250 0.6250-0.1250 (  1058 PWs)   bands (ev):

   -83.5216 -44.7851 -44.7836 -44.7835 -17.1263 -17.1171 -17.1164 -17.0284
   -17.0227   6.0681   9.2311   9.4592   9.5283  10.1247  10.2899  15.9974
    17.8371  18.1087  23.4654  24.8788  29.2510  29.7484

          k = 0.7500-0.2500 0.7500 (  1076 PWs)   bands (ev):

   -83.5216 -44.7853 -44.7840 -44.7835 -17.1276 -17.1199 -17.1175 -17.0294
   -17.0247   6.2789   9.2858   9.5033   9.7601  10.1058  11.1383  13.8649
    16.7829  18.0583  23.5841  26.7093  28.9709  29.0643

          k = 0.6250-0.1250 0.6250 (  1075 PWs)   bands (ev):

   -83.5216 -44.7851 -44.7843 -44.7835 -17.1257 -17.1213 -17.1172 -17.0279
   -17.0261   6.2947   9.2968   9.4645   9.9058  10.0393  11.4504  13.4099
    16.1039  18.6249  23.9126  27.8905  28.3822  29.9747

          k = 0.5000 0.0000 0.5000 (  1065 PWs)   bands (ev):

   -83.5216 -44.7848 -44.7841 -44.7834 -17.1234 -17.1187 -17.1178 -17.0273
   -17.0256   6.1155   9.2943   9.3548   9.8402   9.9893  10.5067  15.1420
    16.3058  19.6206  24.6153  27.5750  27.6349  28.5212

          k = 0.0000 0.7500 0.0000 (  1058 PWs)   bands (ev):

   -83.5216 -44.7855 -44.7836 -44.7836 -17.1291 -17.1156 -17.1156 -17.0294
   -17.0210   6.2595   9.2206   9.6172   9.6172  10.1458  10.6180  15.3743
    17.3308  17.3308  22.6804  23.6542  32.0173  32.0173

          k = 0.8750-0.1250 0.8750 (  1067 PWs)   bands (ev):

   -83.5216 -44.7856 -44.7838 -44.7836 -17.1297 -17.1175 -17.1168 -17.0304
   -17.0202   6.3909   9.2532   9.6810   9.7163  10.1358  11.3835  14.1255
    16.2765  17.1502  22.9570  24.2382  31.5159  31.8904

          k = 0.7500 0.0000 0.7500 (  1069 PWs)   bands (ev):

   -83.5215 -44.7853 -44.7843 -44.7836 -17.1269 -17.1196 -17.1165 -17.0284
   -17.0232   6.4031   9.2905   9.6220   9.8076  10.0783  12.0063  13.5259
    15.2070  17.6411  23.2799  26.5767  30.1745  30.9280

          k = 0.0000-1.0000 0.0000 (  1090 PWs)   bands (ev):

   -83.5215 -44.7859 -44.7836 -44.7836 -17.1336 -17.1189 -17.1189 -17.0321
   -17.0217   6.4334   9.2153   9.7520   9.7520  10.1600  11.6166  13.6276
    16.8019  16.8019  22.5626  23.2215  33.4760  34.3055

          k =-0.2500 0.5000 0.0000 (  1063 PWs)   bands (ev):

   -83.5216 -44.7847 -44.7836 -44.7834 -17.1234 -17.1171 -17.1162 -17.0304
   -17.0255   5.8626   9.2178   9.3089   9.4742  10.0392  10.1548  16.7024
    17.7258  19.6510  24.8811  25.7021  26.8440  29.1842

          k = 0.6250-0.3750 0.8750 (  1069 PWs)   bands (ev):

   -83.5216 -44.7851 -44.7839 -44.7835 -17.1253 -17.1195 -17.1168 -17.0291
   -17.0251   6.1647   9.3027   9.3782   9.7904  10.0675  10.6583  14.4976
    17.0425  18.7522  25.0125  26.0598  27.4175  29.5013

          k = 0.5000-0.2500 0.7500 (  1072 PWs)   bands (ev):

   -83.5216 -44.7852 -44.7841 -44.7835 -17.1263 -17.1207 -17.1162 -17.0276
   -17.0262   6.2750   9.3063   9.4193   9.9219  10.0488  11.5471  12.9449
    16.9795  18.2948  24.9115  25.9319  28.5994  30.2647

          k = 0.7500-0.2500 1.0000 (  1067 PWs)   bands (ev):

   -83.5216 -44.7853 -44.7839 -44.7836 -17.1276 -17.1187 -17.1168 -17.0293
   -17.0234   6.2831   9.2946   9.5104   9.7088  10.1110  10.8817  14.9305
    16.5436  17.3837  24.0679  24.8191  28.7551  31.9640

          k = 0.6250-0.1250 0.8750 (  1073 PWs)   bands (ev):

   -83.5216 -44.7852 -44.7843 -44.7836 -17.1265 -17.1210 -17.1170 -17.0289
   -17.0241   6.3854   9.3232   9.5448   9.8505  10.0472  11.8213  13.6676
    15.7007  17.0705  24.4939  26.6976  28.1223  30.2682

          k = 0.5000 0.0000 0.7500 (  1075 PWs)   bands (ev):

   -83.5216 -44.7849 -44.7845 -44.7835 -17.1253 -17.1229 -17.1178 -17.0276
   -17.0248   6.3411   9.3345   9.4797   9.9036  10.0065  11.5149  14.0026
    15.4716  17.7223  24.9814  27.0859  27.8494  29.8436

          k =-0.2500-1.0000 0.0000 (  1070 PWs)   bands (ev):

   -83.5215 -44.7856 -44.7840 -44.7836 -17.1294 -17.1190 -17.1172 -17.0283
   -17.0218   6.4304   9.2812   9.6506   9.7975  10.1040  11.9236  13.6131
    16.1873  16.3848  23.8070  24.5408  30.4859  31.4258

          k =-0.5000-1.0000 0.0000 (  1084 PWs)   bands (ev):

   -83.5215 -44.7849 -44.7846 -44.7836 -17.1267 -17.1242 -17.1179 -17.0291
   -17.0251   6.4264   9.3456   9.5656   9.9456   9.9484  12.2622  13.5961
    15.6069  16.0319  25.9275  27.3610  27.6727  27.8445

     the Fermi energy is    22.4106 ev

!    total energy              =    -485.19945213 Ry
     estimated scf accuracy    <       0.00000194 Ry

     The total energy is the sum of the following terms:
     one-electron contribution =    -204.55103561 Ry
     hartree contribution      =     118.53832810 Ry
     xc contribution           =     -47.09589045 Ry
     ewald contribution        =    -352.09085417 Ry

     convergence has been achieved in   5 iterations

     Forces acting on atoms (cartesian axes, Ry/au):

     atom    1 type  1   force =     0.00000000    0.00000000    0.00000000
     atom    2 type  2   force =     0.00000000    0.00000000    0.00000000

     Total force =     0.000000     Total SCF correction =     0.000000


     Computing stress (Cartesian axis) and pressure

          total   stress  (Ry/bohr**3)                   (kbar)     P=     1136.83
   0.00772802  -0.00000000  -0.00000000         1136.83       -0.00       -0.00
  -0.00000000   0.00772802   0.00000000           -0.00     1136.83        0.00
  -0.00000000   0.00000000   0.00772802           -0.00        0.00     1136.83


     Writing all to output data dir ./tmp/CdTe.save/ :
     XML data file, charge density, pseudopotentials, collected wavefunctions

     init_run     :      0.34s CPU      0.37s WALL (       1 calls)
     electrons    :      7.86s CPU      8.22s WALL (       1 calls)
     forces       :      0.09s CPU      0.10s WALL (       1 calls)
     stress       :      0.36s CPU      0.37s WALL (       1 calls)

     Called by init_run:
     wfcinit      :      0.28s CPU      0.32s WALL (       1 calls)
     potinit      :      0.02s CPU      0.02s WALL (       1 calls)
     hinit0       :      0.03s CPU      0.03s WALL (       1 calls)

     Called by electrons:
     c_bands      :      6.73s CPU      7.05s WALL (       6 calls)
     sum_band     :      1.10s CPU      1.13s WALL (       6 calls)
     v_of_rho     :      0.03s CPU      0.04s WALL (       6 calls)
     mix_rho      :      0.00s CPU      0.00s WALL (       6 calls)

     Called by c_bands:
     init_us_2    :      0.09s CPU      0.10s WALL (     435 calls)
     cegterg      :      6.59s CPU      6.91s WALL (     174 calls)

     Called by *egterg:
     cdiaghg      :      0.26s CPU      0.27s WALL (     760 calls)
     h_psi        :      4.74s CPU      5.05s WALL (     818 calls)
     g_psi        :      0.03s CPU      0.03s WALL (     615 calls)

     Called by h_psi:
     h_psi:calbec :      0.42s CPU      0.44s WALL (     818 calls)
     vloc_psi     :      3.89s CPU      4.17s WALL (     818 calls)
                                        0.00s GPU  (     818 calls)
     add_vuspsi   :      0.40s CPU      0.42s WALL (     818 calls)

     General routines
     calbec       :      0.75s CPU      0.78s WALL (    1311 calls)
     fft          :      0.01s CPU      0.02s WALL (      68 calls)
     ffts         :      0.00s CPU      0.00s WALL (       6 calls)
     fftw         :      3.86s CPU      4.27s WALL (   30560 calls)


     PWSCF        :      8.67s CPU      9.09s WALL


   This run was terminated on:  19: 7:32  11Jan2026            

=------------------------------------------------------------------------------=
   JOB DONE.
=------------------------------------------------------------------------------=
