
     Program PWSCF v.7.5 starts on 11Jan2026 at 19: 8:15 

     This program is part of the open-source Quantum ESPRESSO suite
     for quantum simulation of materials; please cite
         "P. Giannozzi et al., J. Phys.:Condens. Matter 21 395502 (2009);
         "P. Giannozzi et al., J. Phys.:Condens. Matter 29 465901 (2017);
         "P. Giannozzi et al., J. Chem. Phys. 152 154105 (2020);
          URL http://www.quantum-espresso.org", 
     in publications or presentations arising from this work. More details at
     http://www.quantum-espresso.org/quote

     Serial version
     645 MiB available memory on the printing compute node when the environment starts

     Waiting for input...
     Reading input from standard input

     Current dimensions of program PWSCF are:
     Max number of different atomic species (ntypx) = 10
     Max number of k-points (npk) =  40000
     Max angular momentum in pseudopotentials (lmaxx) =  4
     Message from routine iosys:
     BEWARE:  force calculation with tetrahedra (not recommanded)
     Message from routine iosys:
     BEWARE: stress calculation with tetrahedra (not recommanded)
     [opt_tetra]  Optimized tetrahedron method is used.


     G-vector sticks info
     --------------------
     sticks:   dense  smooth     PW     G-vecs:    dense   smooth      PW
     Sum        1381    1381    397                33823    33823    5209

     Using Slab Decomposition



     bravais-lattice index     =            2
     lattice parameter (alat)  =      10.0000  a.u.
     unit-cell volume          =     250.0000 (a.u.)^3
     number of atoms/cell      =            2
     number of atomic types    =            2
     number of electrons       =        36.00
     number of Kohn-Sham states=           22
     kinetic-energy cutoff     =     100.0000  Ry
     charge density cutoff     =     400.0000  Ry
     scf convergence threshold =      1.0E-05
     mixing beta               =       0.7000
     number of iterations used =            8  plain     mixing
     Exchange-correlation= PBE
                           (   1   4   3   4   0   0   0)

     celldm(1)=  10.000000  celldm(2)=   0.000000  celldm(3)=   0.000000
     celldm(4)=   0.000000  celldm(5)=   0.000000  celldm(6)=   0.000000

     crystal axes: (cart. coord. in units of alat)
               a(1) = (  -0.500000   0.000000   0.500000 )  
               a(2) = (   0.000000   0.500000   0.500000 )  
               a(3) = (  -0.500000   0.500000   0.000000 )  

     reciprocal axes: (cart. coord. in units 2 pi/alat)
               b(1) = ( -1.000000 -1.000000  1.000000 )  
               b(2) = (  1.000000  1.000000  1.000000 )  
               b(3) = ( -1.000000  1.000000 -1.000000 )  


     PseudoPot. # 1 for Cd read from file:
     ./PSEUDO/Cd_ONCV_PBE-1.2.upf
     MD5 check sum: 810a600e5a5ac944c8c8f48f0d721646
     Pseudo is Norm-conserving, Zval = 20.0
     Generated using ONCVPSP code by D. R. Hamann
     Using radial grid of  602 points,  6 beta functions with: 
                l(1) =   0
                l(2) =   0
                l(3) =   1
                l(4) =   1
                l(5) =   2
                l(6) =   2

     PseudoPot. # 2 for Te read from file:
     ./PSEUDO/Te_ONCV_PBE-1.2.upf
     MD5 check sum: dd4de4dac1e38587f63aaf3700bb29d3
     Pseudo is Norm-conserving, Zval = 16.0
     Generated using ONCVPSP code by D. R. Hamann
     Using radial grid of  602 points,  6 beta functions with: 
                l(1) =   0
                l(2) =   0
                l(3) =   1
                l(4) =   1
                l(5) =   2
                l(6) =   2

     atomic species   valence    mass     pseudopotential
     Cd               20.00   112.40000     Cd( 1.00)
     Te               16.00   127.60000     Te( 1.00)

     24 Sym. Ops. (no inversion) found



   Cartesian axes

     site n.     atom                  positions (alat units)
         1        Cd     tau(   1) = (   0.0000000   0.0000000   0.0000000  )
         2        Te     tau(   2) = (  -0.2500000   0.2500000   0.2500000  )

     number of k points=    29 (tetrahedron method)
                       cart. coord. in units 2pi/alat
        k(    1) = (   0.0000000   0.0000000   0.0000000), wk =   0.0039062
        k(    2) = (  -0.1250000   0.1250000  -0.1250000), wk =   0.0312500
        k(    3) = (  -0.2500000   0.2500000  -0.2500000), wk =   0.0312500
        k(    4) = (  -0.3750000   0.3750000  -0.3750000), wk =   0.0312500
        k(    5) = (   0.5000000  -0.5000000   0.5000000), wk =   0.0156250
        k(    6) = (   0.0000000   0.2500000   0.0000000), wk =   0.0234375
        k(    7) = (  -0.1250000   0.3750000  -0.1250000), wk =   0.0937500
        k(    8) = (  -0.2500000   0.5000000  -0.2500000), wk =   0.0937500
        k(    9) = (   0.6250000  -0.3750000   0.6250000), wk =   0.0937500
        k(   10) = (   0.5000000  -0.2500000   0.5000000), wk =   0.0937500
        k(   11) = (   0.3750000  -0.1250000   0.3750000), wk =   0.0937500
        k(   12) = (   0.2500000   0.0000000   0.2500000), wk =   0.0468750
        k(   13) = (   0.0000000   0.5000000   0.0000000), wk =   0.0234375
        k(   14) = (  -0.1250000   0.6250000  -0.1250000), wk =   0.0937500
        k(   15) = (   0.7500000  -0.2500000   0.7500000), wk =   0.0937500
        k(   16) = (   0.6250000  -0.1250000   0.6250000), wk =   0.0937500
        k(   17) = (   0.5000000   0.0000000   0.5000000), wk =   0.0468750
        k(   18) = (   0.0000000   0.7500000   0.0000000), wk =   0.0234375
        k(   19) = (   0.8750000  -0.1250000   0.8750000), wk =   0.0937500
        k(   20) = (   0.7500000   0.0000000   0.7500000), wk =   0.0468750
        k(   21) = (   0.0000000  -1.0000000   0.0000000), wk =   0.0117188
        k(   22) = (  -0.2500000   0.5000000   0.0000000), wk =   0.0937500
        k(   23) = (   0.6250000  -0.3750000   0.8750000), wk =   0.1875000
        k(   24) = (   0.5000000  -0.2500000   0.7500000), wk =   0.0937500
        k(   25) = (   0.7500000  -0.2500000   1.0000000), wk =   0.0937500
        k(   26) = (   0.6250000  -0.1250000   0.8750000), wk =   0.1875000
        k(   27) = (   0.5000000   0.0000000   0.7500000), wk =   0.0937500
        k(   28) = (  -0.2500000  -1.0000000   0.0000000), wk =   0.0468750
        k(   29) = (  -0.5000000  -1.0000000   0.0000000), wk =   0.0234375

     Dense  grid:    33823 G-vectors     FFT dimensions: (  45,  45,  45)

     Estimated max dynamical RAM per process >      75.17 MB

     Initial potential from superposition of free atoms

     starting charge      35.9267, renormalised to      36.0000
     Starting wfcs are random

     total cpu time spent up to now is        1.4 secs

     Self-consistent Calculation

     iteration #  1     ecut=   100.00 Ry     beta= 0.70
     Davidson diagonalization with overlap
     ethr =  1.00E-02,  avg # of iterations =  9.4

     Threshold (ethr) on eigenvalues was too large:
     Diagonalizing with lowered threshold

     Davidson diagonalization with overlap
     ethr =  2.55E-04,  avg # of iterations =  2.7

     total cpu time spent up to now is       16.2 secs

     total energy              =    -485.18284726 Ry
     estimated scf accuracy    <       0.07701830 Ry

     iteration #  2     ecut=   100.00 Ry     beta= 0.70
     Davidson diagonalization with overlap
     ethr =  2.14E-04,  avg # of iterations =  2.1

     total cpu time spent up to now is       20.2 secs

     total energy              =    -485.20525830 Ry
     estimated scf accuracy    <       0.01808321 Ry

     iteration #  3     ecut=   100.00 Ry     beta= 0.70
     Davidson diagonalization with overlap
     ethr =  5.02E-05,  avg # of iterations =  2.0

     total cpu time spent up to now is       24.1 secs

     total energy              =    -485.20925257 Ry
     estimated scf accuracy    <       0.00020664 Ry

     iteration #  4     ecut=   100.00 Ry     beta= 0.70
     Davidson diagonalization with overlap
     ethr =  5.74E-07,  avg # of iterations =  3.0

     total cpu time spent up to now is       28.2 secs

     total energy              =    -485.20927334 Ry
     estimated scf accuracy    <       0.00001842 Ry

     iteration #  5     ecut=   100.00 Ry     beta= 0.70
     Davidson diagonalization with overlap
     ethr =  5.12E-08,  avg # of iterations =  2.0

     total cpu time spent up to now is       32.2 secs

     End of self-consistent calculation

          k = 0.0000 0.0000 0.0000 (  4279 PWs)   bands (ev):

   -83.5249 -44.7860 -44.7860 -44.7860 -17.0993 -17.0993 -17.0993 -17.0124
   -17.0124   4.9594   9.0220   9.0220   9.0220  10.0616  10.0616  21.9899
    21.9899  21.9899  24.2686  25.4294  25.4294  25.4294

          k =-0.1250 0.1250-0.1250 (  4234 PWs)   bands (ev):

   -83.5249 -44.7863 -44.7860 -44.7860 -17.1007 -17.0992 -17.0992 -17.0118
   -17.0118   5.1295   9.0668   9.0668   9.0670  10.0512  10.0512  19.8755
    21.4962  21.4962  24.5865  25.9684  25.9684  26.4090

          k =-0.2500 0.2500-0.2500 (  4221 PWs)   bands (ev):

   -83.5248 -44.7871 -44.7860 -44.7860 -17.1040 -17.0990 -17.0990 -17.0104
   -17.0104   5.5472   9.1648   9.1648   9.3228  10.0427  10.0427  16.8398
    20.6339  20.6339  24.3169  26.5114  26.5114  27.8353

          k =-0.3750 0.3750-0.3750 (  4215 PWs)   bands (ev):

   -83.5248 -44.7879 -44.7861 -44.7861 -17.1075 -17.0987 -17.0987 -17.0091
   -17.0091   5.9485   9.2409   9.2409  10.0664  10.0664  10.0893  14.0811
    19.9638  19.9638  24.0662  26.3489  26.3489  27.9631

          k = 0.5000-0.5000 0.5000 (  4236 PWs)   bands (ev):

   -83.5248 -44.7883 -44.7861 -44.7861 -17.1089 -17.0986 -17.0986 -17.0087
   -17.0087   6.0981   9.2638   9.2638  10.0882  10.0882  11.1919  12.2749
    19.7148  19.7148  23.9711  26.2067  26.2067  27.8589

          k = 0.0000 0.2500 0.0000 (  4224 PWs)   bands (ev):

   -83.5249 -44.7864 -44.7860 -44.7860 -17.1018 -17.0988 -17.0988 -17.0124
   -17.0108   5.1862   9.0318   9.1066   9.1066  10.0212  10.0754  20.4946
    20.6564  20.6564  24.4530  25.5755  26.9149  26.9149

          k =-0.1250 0.3750-0.1250 (  4219 PWs)   bands (ev):

   -83.5248 -44.7870 -44.7861 -44.7861 -17.1045 -17.0990 -17.0985 -17.0118
   -17.0091   5.5222   9.1142   9.2110   9.2539  10.0078  10.0840  17.8586
    19.7461  20.1930  24.5281  25.8804  26.9848  27.7765

          k =-0.2500 0.5000-0.2500 (  4208 PWs)   bands (ev):

   -83.5248 -44.7877 -44.7862 -44.7861 -17.1070 -17.0997 -17.0982 -17.0105
   -17.0078   5.9280   9.2244   9.3017   9.6811  10.0961  10.1627  15.0680
    19.1853  19.2978  24.4654  26.1843  27.5856  27.8276

          k = 0.6250-0.3750 0.6250 (  4228 PWs)   bands (ev):

   -83.5248 -44.7881 -44.7863 -44.7861 -17.1083 -17.1000 -17.0983 -17.0092
   -17.0076   6.1493   9.2679   9.3308   9.9663  10.0909  11.0987  12.8155
    18.5611  19.1501  24.3672  26.0727  27.0626  29.4608

          k = 0.5000-0.2500 0.5000 (  4235 PWs)   bands (ev):

   -83.5248 -44.7880 -44.7864 -44.7861 -17.1076 -17.0998 -17.0987 -17.0087
   -17.0085   6.1016   9.2738   9.3052   9.9866  10.0405  10.6931  13.4745
    18.2540  19.6660  24.6069  26.0943  26.7468  29.5561

          k = 0.3750-0.1250 0.3750 (  4234 PWs)   bands (ev):

   -83.5248 -44.7874 -44.7863 -44.7860 -17.1053 -17.0993 -17.0993 -17.0100
   -17.0091   5.7968   9.2254   9.2379   9.5417   9.9982  10.1365  15.9808
    18.4814  20.5712  25.1340  26.3126  26.5744  28.0405

          k = 0.2500 0.0000 0.2500 (  4245 PWs)   bands (ev):

   -83.5249 -44.7867 -44.7861 -44.7860 -17.1026 -17.0994 -17.0989 -17.0114
   -17.0104   5.3834   9.1205   9.1340   9.1825  10.0124  10.0745  18.6082
    19.4304  21.4470  25.3819  26.0452  26.1622  26.9844

          k = 0.0000 0.5000 0.0000 (  4208 PWs)   bands (ev):

   -83.5248 -44.7873 -44.7862 -44.7862 -17.1078 -17.0978 -17.0978 -17.0126
   -17.0070   5.7399   9.1237   9.3365   9.3365  10.0243  10.1092  18.0469
    18.7432  18.7432  23.2611  24.8402  29.3565  29.3565

          k =-0.1250 0.6250-0.1250 (  4203 PWs)   bands (ev):

   -83.5248 -44.7878 -44.7863 -44.7862 -17.1100 -17.0983 -17.0975 -17.0122
   -17.0053   6.0574   9.2290   9.4570   9.5259  10.1221  10.2863  15.9936
    17.8348  18.1075  23.4555  24.8704  29.2421  29.7371

          k = 0.7500-0.2500 0.7500 (  4216 PWs)   bands (ev):

   -83.5247 -44.7880 -44.7867 -44.7862 -17.1096 -17.1005 -17.0976 -17.0109
   -17.0050   6.2690   9.2837   9.5011   9.7575  10.1032  11.1343  13.8623
    16.7804  18.0573  23.5753  26.7018  28.9625  29.0545

          k = 0.6250-0.1250 0.6250 (  4228 PWs)   bands (ev):

   -83.5247 -44.7878 -44.7870 -44.7862 -17.1070 -17.1028 -17.0982 -17.0094
   -17.0063   6.2849   9.2946   9.4623   9.9031  10.0366  11.4462  13.4077
    16.1015  18.6238  23.9032  27.8828  28.3730  29.9669

          k = 0.5000 0.0000 0.5000 (  4211 PWs)   bands (ev):

   -83.5248 -44.7876 -44.7868 -44.7861 -17.1056 -17.1019 -17.0989 -17.0087
   -17.0083   6.1050   9.2921   9.3527   9.8376   9.9866  10.5036  15.1381
    16.3036  19.6195  24.6054  27.5671  27.6257  28.5139

          k = 0.0000 0.7500 0.0000 (  4220 PWs)   bands (ev):

   -83.5247 -44.7882 -44.7863 -44.7863 -17.1134 -17.0969 -17.0969 -17.0133
   -17.0031   6.2489   9.2185   9.6149   9.6149  10.1433  10.6137  15.3702
    17.3299  17.3299  22.6702  23.6448  32.0078  32.0078

          k = 0.8750-0.1250 0.8750 (  4220 PWs)   bands (ev):

   -83.5247 -44.7883 -44.7865 -44.7863 -17.1137 -17.0978 -17.0968 -17.0128
   -17.0026   6.3807   9.2511   9.6787   9.7138  10.1333  11.3786  14.1226
    16.2753  17.1494  22.9475  24.2287  31.5016  31.8826

          k = 0.7500 0.0000 0.7500 (  4222 PWs)   bands (ev):

   -83.5247 -44.7880 -44.7870 -44.7863 -17.1107 -17.1008 -17.0974 -17.0111
   -17.0038   6.3932   9.2883   9.6197   9.8049  10.0758  12.0002  13.5241
    15.2055  17.6402  23.2699  26.5681  30.1634  30.9195

          k = 0.0000-1.0000 0.0000 (  4200 PWs)   bands (ev):

   -83.5247 -44.7886 -44.7864 -44.7864 -17.1156 -17.0965 -17.0965 -17.0136
   -17.0016   6.4240   9.2131   9.7498   9.7498  10.1576  11.6109  13.6258
    16.8012  16.8012  22.5539  23.2126  33.4547  34.3019

          k =-0.2500 0.5000 0.0000 (  4207 PWs)   bands (ev):

   -83.5248 -44.7874 -44.7864 -44.7861 -17.1068 -17.0991 -17.0985 -17.0113
   -17.0074   5.8520   9.2157   9.3067   9.4720  10.0363  10.1519  16.6984
    17.7236  19.6492  24.8715  25.6948  26.8335  29.1744

          k = 0.6250-0.3750 0.8750 (  4223 PWs)   bands (ev):

   -83.5248 -44.7878 -44.7866 -44.7862 -17.1076 -17.1010 -17.0982 -17.0101
   -17.0066   6.1545   9.3006   9.3761   9.7878  10.0649  10.6550  14.4946
    17.0400  18.7506  25.0043  26.0504  27.4089  29.4916

          k = 0.5000-0.2500 0.7500 (  4242 PWs)   bands (ev):

   -83.5247 -44.7879 -44.7868 -44.7862 -17.1075 -17.1023 -17.0980 -17.0094
   -17.0065   6.2651   9.3041   9.4171   9.9192  10.0462  11.5425  12.9434
    16.9768  18.2934  24.9033  25.9219  28.5899  30.2563

          k = 0.7500-0.2500 1.0000 (  4212 PWs)   bands (ev):

   -83.5247 -44.7880 -44.7866 -44.7863 -17.1112 -17.0992 -17.0973 -17.0118
   -17.0041   6.2728   9.2926   9.5081   9.7063  10.1084  10.8777  14.9268
    16.5420  17.3823  24.0596  24.8099  28.7459  31.9546

          k = 0.6250-0.1250 0.8750 (  4227 PWs)   bands (ev):

   -83.5247 -44.7879 -44.7870 -44.7863 -17.1093 -17.1022 -17.0973 -17.0105
   -17.0045   6.3755   9.3211   9.5425   9.8478  10.0447  11.8161  13.6654
    15.6988  17.0692  24.4859  26.6892  28.1131  30.2590

          k = 0.5000 0.0000 0.7500 (  4217 PWs)   bands (ev):

   -83.5247 -44.7876 -44.7872 -44.7862 -17.1065 -17.1042 -17.0977 -17.0096
   -17.0056   6.3313   9.3324   9.4775   9.9008  10.0039  11.5107  13.9996
    15.4699  17.7208  24.9734  27.0773  27.8407  29.8353

          k =-0.2500-1.0000 0.0000 (  4232 PWs)   bands (ev):

   -83.5247 -44.7883 -44.7867 -44.7864 -17.1129 -17.0992 -17.0968 -17.0121
   -17.0027   6.4205   9.2790   9.6481   9.7950  10.1015  11.9173  13.6113
    16.1860  16.3838  23.7987  24.5310  30.4756  31.4167

          k =-0.5000-1.0000 0.0000 (  4240 PWs)   bands (ev):

   -83.5247 -44.7876 -44.7873 -44.7864 -17.1073 -17.1049 -17.0970 -17.0100
   -17.0045   6.4170   9.3436   9.5632   9.9432   9.9457  12.2558  13.5947
    15.6055  16.0307  25.9221  27.3525  27.6642  27.8364

     the Fermi energy is    22.4023 ev

!    total energy              =    -485.20927747 Ry
     estimated scf accuracy    <       0.00000169 Ry

     The total energy is the sum of the following terms:
     one-electron contribution =    -204.58167102 Ry
     hartree contribution      =     118.55283231 Ry
     xc contribution           =     -47.08958462 Ry
     ewald contribution        =    -352.09085414 Ry

     convergence has been achieved in   5 iterations

     Forces acting on atoms (cartesian axes, Ry/au):

     atom    1 type  1   force =     0.00000000    0.00000000    0.00000000
     atom    2 type  2   force =    -0.00000000   -0.00000000    0.00000000

     Total force =     0.000000     Total SCF correction =     0.000000


     Computing stress (Cartesian axis) and pressure

          total   stress  (Ry/bohr**3)                   (kbar)     P=     1192.89
   0.00810911  -0.00000000   0.00000000         1192.89       -0.00        0.00
  -0.00000000   0.00810911  -0.00000000           -0.00     1192.89       -0.00
   0.00000000  -0.00000000   0.00810911            0.00       -0.00     1192.89


     Writing all to output data dir ./tmp/CdTe.save/ :
     XML data file, charge density, pseudopotentials, collected wavefunctions

     init_run     :      1.30s CPU      1.40s WALL (       1 calls)
     electrons    :     30.26s CPU     30.83s WALL (       1 calls)
     forces       :      0.39s CPU      0.40s WALL (       1 calls)
     stress       :      1.50s CPU      1.53s WALL (       1 calls)

     Called by init_run:
     wfcinit      :      1.19s CPU      1.27s WALL (       1 calls)
     potinit      :      0.05s CPU      0.06s WALL (       1 calls)
     hinit0       :      0.05s CPU      0.05s WALL (       1 calls)

     Called by electrons:
     c_bands      :     27.07s CPU     27.57s WALL (       6 calls)
     sum_band     :      3.07s CPU      3.13s WALL (       6 calls)
     v_of_rho     :      0.13s CPU      0.14s WALL (       6 calls)
     mix_rho      :      0.01s CPU      0.01s WALL (       6 calls)

     Called by c_bands:
     init_us_2    :      0.39s CPU      0.42s WALL (     435 calls)
     cegterg      :     26.50s CPU     26.98s WALL (     174 calls)

     Called by *egterg:
     cdiaghg      :      0.28s CPU      0.29s WALL (     758 calls)
     h_psi        :     19.51s CPU     19.97s WALL (     816 calls)
     g_psi        :      0.11s CPU      0.11s WALL (     613 calls)

     Called by h_psi:
     h_psi:calbec :      1.86s CPU      1.88s WALL (     816 calls)
     vloc_psi     :     15.90s CPU     16.30s WALL (     816 calls)
                                        0.00s GPU  (     816 calls)
     add_vuspsi   :      1.66s CPU      1.69s WALL (     816 calls)

     General routines
     calbec       :      3.27s CPU      3.31s WALL (    1309 calls)
     fft          :      0.06s CPU      0.06s WALL (      68 calls)
     ffts         :      0.01s CPU      0.01s WALL (       6 calls)
     fftw         :     16.33s CPU     16.80s WALL (   30868 calls)


     PWSCF        :     33.49s CPU     34.22s WALL


   This run was terminated on:  19: 8:49  11Jan2026            

=------------------------------------------------------------------------------=
   JOB DONE.
=------------------------------------------------------------------------------=
