
     Program PWSCF v.7.5 starts on 11Jan2026 at 19: 7:19 

     This program is part of the open-source Quantum ESPRESSO suite
     for quantum simulation of materials; please cite
         "P. Giannozzi et al., J. Phys.:Condens. Matter 21 395502 (2009);
         "P. Giannozzi et al., J. Phys.:Condens. Matter 29 465901 (2017);
         "P. Giannozzi et al., J. Chem. Phys. 152 154105 (2020);
          URL http://www.quantum-espresso.org", 
     in publications or presentations arising from this work. More details at
     http://www.quantum-espresso.org/quote

     Serial version
     712 MiB available memory on the printing compute node when the environment starts

     Waiting for input...
     Reading input from standard input

     Current dimensions of program PWSCF are:
     Max number of different atomic species (ntypx) = 10
     Max number of k-points (npk) =  40000
     Max angular momentum in pseudopotentials (lmaxx) =  4
     Message from routine iosys:
     BEWARE:  force calculation with tetrahedra (not recommanded)
     Message from routine iosys:
     BEWARE: stress calculation with tetrahedra (not recommanded)
     [opt_tetra]  Optimized tetrahedron method is used.


     G-vector sticks info
     --------------------
     sticks:   dense  smooth     PW     G-vecs:    dense   smooth      PW
     Sum         271     271     91                 2975     2975     609

     Using Slab Decomposition



     bravais-lattice index     =            2
     lattice parameter (alat)  =      10.0000  a.u.
     unit-cell volume          =     250.0000 (a.u.)^3
     number of atoms/cell      =            2
     number of atomic types    =            2
     number of electrons       =        36.00
     number of Kohn-Sham states=           22
     kinetic-energy cutoff     =      20.0000  Ry
     charge density cutoff     =      80.0000  Ry
     scf convergence threshold =      1.0E-05
     mixing beta               =       0.7000
     number of iterations used =            8  plain     mixing
     Exchange-correlation= PBE
                           (   1   4   3   4   0   0   0)

     celldm(1)=  10.000000  celldm(2)=   0.000000  celldm(3)=   0.000000
     celldm(4)=   0.000000  celldm(5)=   0.000000  celldm(6)=   0.000000

     crystal axes: (cart. coord. in units of alat)
               a(1) = (  -0.500000   0.000000   0.500000 )  
               a(2) = (   0.000000   0.500000   0.500000 )  
               a(3) = (  -0.500000   0.500000   0.000000 )  

     reciprocal axes: (cart. coord. in units 2 pi/alat)
               b(1) = ( -1.000000 -1.000000  1.000000 )  
               b(2) = (  1.000000  1.000000  1.000000 )  
               b(3) = ( -1.000000  1.000000 -1.000000 )  


     PseudoPot. # 1 for Cd read from file:
     ./PSEUDO/Cd_ONCV_PBE-1.2.upf
     MD5 check sum: 810a600e5a5ac944c8c8f48f0d721646
     Pseudo is Norm-conserving, Zval = 20.0
     Generated using ONCVPSP code by D. R. Hamann
     Using radial grid of  602 points,  6 beta functions with: 
                l(1) =   0
                l(2) =   0
                l(3) =   1
                l(4) =   1
                l(5) =   2
                l(6) =   2

     PseudoPot. # 2 for Te read from file:
     ./PSEUDO/Te_ONCV_PBE-1.2.upf
     MD5 check sum: dd4de4dac1e38587f63aaf3700bb29d3
     Pseudo is Norm-conserving, Zval = 16.0
     Generated using ONCVPSP code by D. R. Hamann
     Using radial grid of  602 points,  6 beta functions with: 
                l(1) =   0
                l(2) =   0
                l(3) =   1
                l(4) =   1
                l(5) =   2
                l(6) =   2

     atomic species   valence    mass     pseudopotential
     Cd               20.00   112.40000     Cd( 1.00)
     Te               16.00   127.60000     Te( 1.00)

     24 Sym. Ops. (no inversion) found



   Cartesian axes

     site n.     atom                  positions (alat units)
         1        Cd     tau(   1) = (   0.0000000   0.0000000   0.0000000  )
         2        Te     tau(   2) = (  -0.2500000   0.2500000   0.2500000  )

     number of k points=    29 (tetrahedron method)
                       cart. coord. in units 2pi/alat
        k(    1) = (   0.0000000   0.0000000   0.0000000), wk =   0.0039062
        k(    2) = (  -0.1250000   0.1250000  -0.1250000), wk =   0.0312500
        k(    3) = (  -0.2500000   0.2500000  -0.2500000), wk =   0.0312500
        k(    4) = (  -0.3750000   0.3750000  -0.3750000), wk =   0.0312500
        k(    5) = (   0.5000000  -0.5000000   0.5000000), wk =   0.0156250
        k(    6) = (   0.0000000   0.2500000   0.0000000), wk =   0.0234375
        k(    7) = (  -0.1250000   0.3750000  -0.1250000), wk =   0.0937500
        k(    8) = (  -0.2500000   0.5000000  -0.2500000), wk =   0.0937500
        k(    9) = (   0.6250000  -0.3750000   0.6250000), wk =   0.0937500
        k(   10) = (   0.5000000  -0.2500000   0.5000000), wk =   0.0937500
        k(   11) = (   0.3750000  -0.1250000   0.3750000), wk =   0.0937500
        k(   12) = (   0.2500000   0.0000000   0.2500000), wk =   0.0468750
        k(   13) = (   0.0000000   0.5000000   0.0000000), wk =   0.0234375
        k(   14) = (  -0.1250000   0.6250000  -0.1250000), wk =   0.0937500
        k(   15) = (   0.7500000  -0.2500000   0.7500000), wk =   0.0937500
        k(   16) = (   0.6250000  -0.1250000   0.6250000), wk =   0.0937500
        k(   17) = (   0.5000000   0.0000000   0.5000000), wk =   0.0468750
        k(   18) = (   0.0000000   0.7500000   0.0000000), wk =   0.0234375
        k(   19) = (   0.8750000  -0.1250000   0.8750000), wk =   0.0937500
        k(   20) = (   0.7500000   0.0000000   0.7500000), wk =   0.0468750
        k(   21) = (   0.0000000  -1.0000000   0.0000000), wk =   0.0117188
        k(   22) = (  -0.2500000   0.5000000   0.0000000), wk =   0.0937500
        k(   23) = (   0.6250000  -0.3750000   0.8750000), wk =   0.1875000
        k(   24) = (   0.5000000  -0.2500000   0.7500000), wk =   0.0937500
        k(   25) = (   0.7500000  -0.2500000   1.0000000), wk =   0.0937500
        k(   26) = (   0.6250000  -0.1250000   0.8750000), wk =   0.1875000
        k(   27) = (   0.5000000   0.0000000   0.7500000), wk =   0.0937500
        k(   28) = (  -0.2500000  -1.0000000   0.0000000), wk =   0.0468750
        k(   29) = (  -0.5000000  -1.0000000   0.0000000), wk =   0.0234375

     Dense  grid:     2975 G-vectors     FFT dimensions: (  24,  24,  24)

     Estimated max dynamical RAM per process >       8.34 MB

     Initial potential from superposition of free atoms

     starting charge      35.9267, renormalised to      36.0000

     negative rho (up, down):  1.438E-03 0.000E+00
     Starting wfcs are random

     total cpu time spent up to now is        0.3 secs

     Self-consistent Calculation

     iteration #  1     ecut=    20.00 Ry     beta= 0.70
     Davidson diagonalization with overlap
     ethr =  1.00E-02,  avg # of iterations =  8.0

     negative rho (up, down):  3.223E-04 0.000E+00

     total cpu time spent up to now is        2.1 secs

     total energy              =    -479.27193220 Ry
     estimated scf accuracy    <       1.29987281 Ry

     iteration #  2     ecut=    20.00 Ry     beta= 0.70
     Davidson diagonalization with overlap
     ethr =  3.61E-03,  avg # of iterations =  2.0

     total cpu time spent up to now is        2.5 secs

     total energy              =    -479.43607355 Ry
     estimated scf accuracy    <       0.07876132 Ry

     iteration #  3     ecut=    20.00 Ry     beta= 0.70
     Davidson diagonalization with overlap
     ethr =  2.19E-04,  avg # of iterations =  2.2

     total cpu time spent up to now is        2.9 secs

     total energy              =    -479.44547896 Ry
     estimated scf accuracy    <       0.00447960 Ry

     iteration #  4     ecut=    20.00 Ry     beta= 0.70
     Davidson diagonalization with overlap
     ethr =  1.24E-05,  avg # of iterations =  3.1

     total cpu time spent up to now is        3.3 secs

     total energy              =    -479.44614587 Ry
     estimated scf accuracy    <       0.00017348 Ry

     iteration #  5     ecut=    20.00 Ry     beta= 0.70
     Davidson diagonalization with overlap
     ethr =  4.82E-07,  avg # of iterations =  2.4

     total cpu time spent up to now is        3.7 secs

     End of self-consistent calculation

          k = 0.0000 0.0000 0.0000 (   339 PWs)   bands (ev):

   -87.0026 -45.4697 -45.4697 -45.4697 -14.3269 -14.3269 -14.3269 -13.5353
   -13.5353   4.6029   9.1765   9.1765   9.1765  10.4401  10.4401  22.0589
    22.0589  22.0589  23.5977  27.6983  27.6984  27.6984

          k =-0.1250 0.1250-0.1250 (   362 PWs)   bands (ev):

   -87.0530 -45.9041 -45.7308 -45.7308 -15.7424 -15.7424 -14.8724 -14.7529
   -14.7529   4.7560   9.0881   9.0881   9.1232  10.1286  10.1286  19.9598
    21.5753  21.5753  24.4790  27.3702  27.9202  27.9202

          k =-0.2500 0.2500-0.2500 (   368 PWs)   bands (ev):

   -87.0637 -46.0743 -45.7536 -45.7536 -16.0635 -16.0635 -15.5759 -14.7936
   -14.7936   5.1329   9.1928   9.1928   9.3443  10.0341  10.0341  16.9550
    20.8134  20.8134  24.5991  28.1789  28.3159  28.3160

          k =-0.3750 0.3750-0.3750 (   368 PWs)   bands (ev):

   -87.0609 -46.0296 -45.7561 -45.7561 -16.1719 -16.1719 -15.2386 -14.7791
   -14.7791   5.5000   9.3014   9.3014  10.0105  10.0105  10.1719  14.2311
    20.1659  20.1659  24.5174  28.1192  28.1193  28.3895

          k = 0.5000-0.5000 0.5000 (   368 PWs)   bands (ev):

   -87.0616 -46.1079 -45.7201 -45.7201 -16.1557 -16.1557 -15.6468 -14.6366
   -14.6366   5.6321   9.3808   9.3808  10.0325  10.0325  11.1183  12.4851
    19.9191  19.9191  24.3992  28.0333  28.0333  28.2472

          k = 0.0000 0.2500 0.0000 (   371 PWs)   bands (ev):

   -87.0690 -45.9626 -45.8618 -45.8618 -15.8249 -15.8249 -15.5932 -15.5009
   -15.1113   4.8044   9.0213   9.0213   9.0769  10.0894  10.1274  20.3381
    20.7986  20.7986  25.0658  26.1293  28.5202  28.5202

          k =-0.1250 0.3750-0.1250 (   370 PWs)   bands (ev):

   -87.0675 -45.9457 -45.9081 -45.8037 -16.0101 -15.6302 -15.5544 -15.3105
   -15.2239   5.1092   9.0895   9.1839   9.2339  10.0422  10.1103  17.9680
    20.0112  20.2786  25.3521  26.4409  27.9926  29.2717

          k =-0.2500 0.5000-0.2500 (   380 PWs)   bands (ev):

   -87.0850 -46.1521 -45.9531 -45.8976 -16.4671 -16.4528 -16.1535 -15.5099
   -15.4759   5.4586   9.1655   9.2555   9.6569   9.9901  10.1120  15.1611
    19.4191  19.4243  25.1725  26.9955  28.5740  29.0661

          k = 0.6250-0.3750 0.6250 (   379 PWs)   bands (ev):

   -87.0842 -46.1449 -45.9391 -45.9073 -16.5649 -16.5160 -15.9251 -15.5083
   -15.4510   5.6571   9.2368   9.3035   9.8709   9.9608  11.0224  12.9845
    18.7333  19.3509  25.1046  26.8133  28.5950  30.2668

          k = 0.5000-0.2500 0.5000 (   382 PWs)   bands (ev):

   -87.0891 -46.1566 -45.9696 -45.9619 -16.7472 -16.4847 -16.1094 -15.9075
   -15.3844   5.6118   9.2184   9.2506   9.8865   9.9204  10.6279  13.5894
    18.4552  19.7975  25.3098  26.8165  28.2639  30.3169

          k = 0.3750-0.1250 0.3750 (   372 PWs)   bands (ev):

   -87.0697 -46.0137 -45.8744 -45.8194 -16.1585 -15.9591 -15.6366 -15.5938
   -14.7545   5.3557   9.1500   9.2790   9.5741   9.9799  10.1139  16.0780
    18.7665  20.6717  25.6407  27.2225  28.1976  28.6107

          k = 0.2500 0.0000 0.2500 (   367 PWs)   bands (ev):

   -87.0629 -45.8876 -45.8572 -45.8259 -15.8848 -15.7313 -15.4567 -15.3874
   -14.6780   4.9872   9.0228   9.1323   9.2221  10.0329  10.1786  18.6207
    19.8025  21.4279  25.4112  27.1909  27.8097  28.0349

          k = 0.0000 0.5000 0.0000 (   375 PWs)   bands (ev):

   -87.0737 -46.0452 -45.8693 -45.8693 -16.0844 -16.0844 -15.7750 -15.7567
   -14.9464   5.3050   9.1724   9.2392   9.2392  10.0892  10.1075  17.9832
    18.9844  18.9844  24.4068  25.5900  30.0778  30.5903

          k =-0.1250 0.6250-0.1250 (   376 PWs)   bands (ev):

   -87.0746 -46.0597 -45.8885 -45.8605 -16.5051 -16.3077 -15.5309 -15.3263
   -15.1646   5.5901   9.2154   9.3514   9.4914  10.1224  10.3095  16.0470
    18.0420  18.3356  24.3834  25.8453  29.7746  31.0813

          k = 0.7500-0.2500 0.7500 (   377 PWs)   bands (ev):

   -87.0786 -46.0322 -45.9435 -45.9106 -16.2402 -16.1329 -16.0025 -15.8724
   -15.1139   5.7719   9.2851   9.3717   9.7194  10.0214  11.1229  13.9736
    17.0422  18.2714  24.5070  27.6066  29.5542  30.4274

          k = 0.6250-0.1250 0.6250 (   380 PWs)   bands (ev):

   -87.0857 -46.0942 -45.9826 -45.9465 -16.3947 -16.2896 -16.2466 -16.0870
   -15.2231   5.7741   9.2994   9.3108   9.8382   9.9324  11.3615  13.5510
    16.3886  18.8168  24.8598  28.3209  29.6907  30.8435

          k = 0.5000 0.0000 0.5000 (   379 PWs)   bands (ev):

   -87.0831 -46.0609 -45.9839 -45.9208 -16.2524 -16.1190 -16.0781 -16.0283
   -15.3617   5.6134   9.2292   9.2794   9.8257   9.9150  10.4307  15.1469
    16.6281  19.7720  25.5872  27.7799  28.9945  29.1919

          k = 0.0000 0.7500 0.0000 (   383 PWs)   bands (ev):

   -87.0874 -46.1264 -45.9684 -45.9684 -16.5605 -16.5605 -16.3811 -15.9780
   -15.0992   5.7654   9.2159   9.4291   9.4291   9.9918  10.6706  15.3916
    17.5200  17.5200  23.5147  24.7794  32.8620  32.9735

          k = 0.8750-0.1250 0.8750 (   374 PWs)   bands (ev):

   -87.0706 -46.0051 -45.8810 -45.8495 -16.6811 -16.3340 -15.3853 -15.1090
   -14.9587   5.8928   9.3200   9.5157   9.6212  10.1201  11.4260  14.2594
    16.5548  17.3771  23.8484  25.3905  32.3626  32.8853

          k = 0.7500 0.0000 0.7500 (   377 PWs)   bands (ev):

   -87.0799 -46.0596 -46.0149 -45.8440 -16.4314 -16.1937 -16.0313 -15.8058
   -15.0444   5.8895   9.2964   9.5009   9.6801  10.0327  11.8556  13.6897
    15.5179  17.8750  24.2649  27.5457  31.4383  31.4562

          k = 0.0000-1.0000 0.0000 (   388 PWs)   bands (ev):

   -87.0974 -46.1468 -46.0611 -46.0611 -17.1668 -17.1668 -16.5595 -15.5627
   -15.4969   5.9220   9.2521   9.5000   9.5000   9.9694  11.5593  13.7981
    16.9912  16.9912  23.3049  24.4610  34.5872  34.5959

          k =-0.2500 0.5000 0.0000 (   374 PWs)   bands (ev):

   -87.0728 -45.9675 -45.9334 -45.8744 -16.0601 -15.9821 -15.6759 -15.5667
   -15.2340   5.4050   9.1411   9.2792   9.4800  10.0297  10.1741  16.7329
    18.0613  19.8128  25.7489  26.5095  27.5936  30.3261

          k = 0.6250-0.3750 0.8750 (   378 PWs)   bands (ev):

   -87.0805 -46.0617 -45.9523 -45.9056 -16.4323 -16.2017 -15.8464 -15.7412
   -15.3230   5.6649   9.2315   9.3487   9.7692  10.0040  10.5912  14.5760
    17.2877  18.9831  25.8934  26.8650  28.2637  30.6197

          k = 0.5000-0.2500 0.7500 (   378 PWs)   bands (ev):

   -87.0827 -46.1108 -45.9414 -45.9121 -16.4874 -16.2273 -16.2035 -15.7476
   -15.1199   5.7618   9.2919   9.3331   9.8725   9.9221  11.4262  13.1447
    17.1954  18.5461  25.8726  26.6645  29.6090  31.2652

          k = 0.7500-0.2500 1.0000 (   391 PWs)   bands (ev):

   -87.1028 -46.2166 -46.0862 -46.0710 -16.9618 -16.9590 -16.3646 -16.2939
   -16.0519   5.7687   9.2003   9.3211   9.5248   9.9731  10.7650  14.9067
    16.7879  17.5933  24.7202  25.9117  29.4796  32.8357

          k = 0.6250-0.1250 0.8750 (   382 PWs)   bands (ev):

   -87.0893 -46.0947 -46.0562 -45.9477 -16.6527 -16.5972 -16.2347 -15.9063
   -15.3388   5.8640   9.2825   9.3882   9.7262   9.9473  11.6648  13.7957
    15.9793  17.3272  25.3344  27.6914  28.9778  31.2390

          k = 0.5000 0.0000 0.7500 (   383 PWs)   bands (ev):

   -87.0915 -46.1261 -46.0577 -45.9632 -16.7565 -16.3061 -16.2453 -16.1454
   -15.5302   5.8183   9.2672   9.3492   9.7918   9.8770  11.3766  14.0412
    15.7868  17.9607  25.8643  27.8482  28.7454  30.9249

          k =-0.2500-1.0000 0.0000 (   380 PWs)   bands (ev):

   -87.0840 -46.0445 -45.9894 -45.9622 -16.5480 -16.4474 -16.4146 -15.5204
   -15.1834   5.9200   9.2747   9.5180   9.6351   9.9536  11.8549  13.7859
    16.4825  16.6251  24.5532  25.7820  31.3740  32.3147

          k =-0.5000-1.0000 0.0000 (   380 PWs)   bands (ev):

   -87.0862 -46.0473 -46.0023 -46.0000 -16.3608 -16.2633 -16.2132 -15.9182
   -15.5756   5.9080   9.3075   9.4069   9.8264   9.8612  11.9592  13.7526
    16.0157  16.2712  26.5811  28.6011  28.7195  28.7361

     the Fermi energy is    22.7112 ev

!    total energy              =    -479.44617387 Ry
     estimated scf accuracy    <       0.00000875 Ry

     The total energy is the sum of the following terms:
     one-electron contribution =    -193.16900713 Ry
     hartree contribution      =     112.33440758 Ry
     xc contribution           =     -46.52071645 Ry
     ewald contribution        =    -352.09085787 Ry

     convergence has been achieved in   5 iterations

     Forces acting on atoms (cartesian axes, Ry/au):

     atom    1 type  1   force =     0.00000000    0.00000000    0.00000000
     atom    2 type  2   force =     0.00000000    0.00000000    0.00000000

     Total force =     0.000000     Total SCF correction =     0.000000


     Computing stress (Cartesian axis) and pressure

          total   stress  (Ry/bohr**3)                   (kbar)     P=    -9846.60
  -0.06693584  -0.00000000  -0.00000000        -9846.60       -0.00       -0.00
  -0.00000000  -0.06693584   0.00000000           -0.00    -9846.60        0.00
  -0.00000000   0.00000000  -0.06693584           -0.00        0.00    -9846.60


     Writing all to output data dir ./tmp/CdTe.save/ :
     XML data file, charge density, pseudopotentials, collected wavefunctions

     init_run     :      0.27s CPU      0.31s WALL (       1 calls)
     electrons    :      3.08s CPU      3.35s WALL (       1 calls)
     forces       :      0.03s CPU      0.03s WALL (       1 calls)
     stress       :      0.12s CPU      0.13s WALL (       1 calls)

     Called by init_run:
     wfcinit      :      0.20s CPU      0.24s WALL (       1 calls)
     potinit      :      0.03s CPU      0.03s WALL (       1 calls)
     hinit0       :      0.04s CPU      0.04s WALL (       1 calls)

     Called by electrons:
     c_bands      :      2.70s CPU      2.94s WALL (       5 calls)
     sum_band     :      0.37s CPU      0.40s WALL (       5 calls)
     v_of_rho     :      0.02s CPU      0.02s WALL (       6 calls)
     mix_rho      :      0.00s CPU      0.00s WALL (       5 calls)

     Called by c_bands:
     init_us_2    :      0.03s CPU      0.03s WALL (     377 calls)
     cegterg      :      2.65s CPU      2.89s WALL (     145 calls)

     Called by *egterg:
     cdiaghg      :      0.29s CPU      0.31s WALL (     661 calls)
     h_psi        :      1.84s CPU      2.06s WALL (     690 calls)
     g_psi        :      0.01s CPU      0.01s WALL (     516 calls)

     Called by h_psi:
     h_psi:calbec :      0.15s CPU      0.17s WALL (     690 calls)
     vloc_psi     :      1.52s CPU      1.72s WALL (     690 calls)
                                        0.00s GPU  (     690 calls)
     add_vuspsi   :      0.15s CPU      0.16s WALL (     690 calls)

     General routines
     calbec       :      0.25s CPU      0.28s WALL (    1183 calls)
     fft          :      0.01s CPU      0.01s WALL (      67 calls)
     ffts         :      0.00s CPU      0.00s WALL (       5 calls)
     fftw         :      1.36s CPU      1.63s WALL (   25390 calls)


     PWSCF        :      3.54s CPU      3.87s WALL


   This run was terminated on:  19: 7:23  11Jan2026            

=------------------------------------------------------------------------------=
   JOB DONE.
=------------------------------------------------------------------------------=
