
     Program PWSCF v.7.5 starts on 11Jan2026 at 19:16: 6 

     This program is part of the open-source Quantum ESPRESSO suite
     for quantum simulation of materials; please cite
         "P. Giannozzi et al., J. Phys.:Condens. Matter 21 395502 (2009);
         "P. Giannozzi et al., J. Phys.:Condens. Matter 29 465901 (2017);
         "P. Giannozzi et al., J. Chem. Phys. 152 154105 (2020);
          URL http://www.quantum-espresso.org", 
     in publications or presentations arising from this work. More details at
     http://www.quantum-espresso.org/quote

     Serial version
     593 MiB available memory on the printing compute node when the environment starts

     Waiting for input...
     Reading input from standard input

     Current dimensions of program PWSCF are:
     Max number of different atomic species (ntypx) = 10
     Max number of k-points (npk) =  40000
     Max angular momentum in pseudopotentials (lmaxx) =  4
     Message from routine iosys:
     BEWARE:  force calculation with tetrahedra (not recommanded)
     Message from routine iosys:
     BEWARE: stress calculation with tetrahedra (not recommanded)
     [opt_tetra]  Optimized tetrahedron method is used.


     G-vector sticks info
     --------------------
     sticks:   dense  smooth     PW     G-vecs:    dense   smooth      PW
     Sum         955     955    295                19795    19795    3287

     Using Slab Decomposition



     bravais-lattice index     =            2
     lattice parameter (alat)  =      10.0000  a.u.
     unit-cell volume          =     250.0000 (a.u.)^3
     number of atoms/cell      =            2
     number of atomic types    =            2
     number of electrons       =        36.00
     number of Kohn-Sham states=           22
     kinetic-energy cutoff     =      70.0000  Ry
     charge density cutoff     =     280.0000  Ry
     scf convergence threshold =      1.0E-05
     mixing beta               =       0.7000
     number of iterations used =            8  plain     mixing
     Exchange-correlation= PBE
                           (   1   4   3   4   0   0   0)

     celldm(1)=  10.000000  celldm(2)=   0.000000  celldm(3)=   0.000000
     celldm(4)=   0.000000  celldm(5)=   0.000000  celldm(6)=   0.000000

     crystal axes: (cart. coord. in units of alat)
               a(1) = (  -0.500000   0.000000   0.500000 )  
               a(2) = (   0.000000   0.500000   0.500000 )  
               a(3) = (  -0.500000   0.500000   0.000000 )  

     reciprocal axes: (cart. coord. in units 2 pi/alat)
               b(1) = ( -1.000000 -1.000000  1.000000 )  
               b(2) = (  1.000000  1.000000  1.000000 )  
               b(3) = ( -1.000000  1.000000 -1.000000 )  


     PseudoPot. # 1 for Cd read from file:
     ./PSEUDO/Cd_ONCV_PBE-1.2.upf
     MD5 check sum: 810a600e5a5ac944c8c8f48f0d721646
     Pseudo is Norm-conserving, Zval = 20.0
     Generated using ONCVPSP code by D. R. Hamann
     Using radial grid of  602 points,  6 beta functions with: 
                l(1) =   0
                l(2) =   0
                l(3) =   1
                l(4) =   1
                l(5) =   2
                l(6) =   2

     PseudoPot. # 2 for Te read from file:
     ./PSEUDO/Te_ONCV_PBE-1.2.upf
     MD5 check sum: dd4de4dac1e38587f63aaf3700bb29d3
     Pseudo is Norm-conserving, Zval = 16.0
     Generated using ONCVPSP code by D. R. Hamann
     Using radial grid of  602 points,  6 beta functions with: 
                l(1) =   0
                l(2) =   0
                l(3) =   1
                l(4) =   1
                l(5) =   2
                l(6) =   2

     atomic species   valence    mass     pseudopotential
     Cd               20.00   112.40000     Cd( 1.00)
     Te               16.00   127.60000     Te( 1.00)

     24 Sym. Ops. (no inversion) found



   Cartesian axes

     site n.     atom                  positions (alat units)
         1        Cd     tau(   1) = (   0.0000000   0.0000000   0.0000000  )
         2        Te     tau(   2) = (  -0.2500000   0.2500000   0.2500000  )

     number of k points=    72 (tetrahedron method)
                       cart. coord. in units 2pi/alat
        k(    1) = (   0.0000000   0.0000000   0.0000000), wk =   0.0011574
        k(    2) = (  -0.0833333   0.0833333  -0.0833333), wk =   0.0092593
        k(    3) = (  -0.1666667   0.1666667  -0.1666667), wk =   0.0092593
        k(    4) = (  -0.2500000   0.2500000  -0.2500000), wk =   0.0092593
        k(    5) = (  -0.3333333   0.3333333  -0.3333333), wk =   0.0092593
        k(    6) = (  -0.4166667   0.4166667  -0.4166667), wk =   0.0092593
        k(    7) = (   0.5000000  -0.5000000   0.5000000), wk =   0.0046296
        k(    8) = (   0.0000000   0.1666667   0.0000000), wk =   0.0069444
        k(    9) = (  -0.0833333   0.2500000  -0.0833333), wk =   0.0277778
        k(   10) = (  -0.1666667   0.3333333  -0.1666667), wk =   0.0277778
        k(   11) = (  -0.2500000   0.4166667  -0.2500000), wk =   0.0277778
        k(   12) = (  -0.3333333   0.5000000  -0.3333333), wk =   0.0277778
        k(   13) = (   0.5833333  -0.4166667   0.5833333), wk =   0.0277778
        k(   14) = (   0.5000000  -0.3333333   0.5000000), wk =   0.0277778
        k(   15) = (   0.4166667  -0.2500000   0.4166667), wk =   0.0277778
        k(   16) = (   0.3333333  -0.1666667   0.3333333), wk =   0.0277778
        k(   17) = (   0.2500000  -0.0833333   0.2500000), wk =   0.0277778
        k(   18) = (   0.1666667  -0.0000000   0.1666667), wk =   0.0138889
        k(   19) = (   0.0000000   0.3333333   0.0000000), wk =   0.0069444
        k(   20) = (  -0.0833333   0.4166667  -0.0833333), wk =   0.0277778
        k(   21) = (  -0.1666667   0.5000000  -0.1666667), wk =   0.0277778
        k(   22) = (  -0.2500000   0.5833333  -0.2500000), wk =   0.0277778
        k(   23) = (   0.6666667  -0.3333333   0.6666667), wk =   0.0277778
        k(   24) = (   0.5833333  -0.2500000   0.5833333), wk =   0.0277778
        k(   25) = (   0.5000000  -0.1666667   0.5000000), wk =   0.0277778
        k(   26) = (   0.4166667  -0.0833333   0.4166667), wk =   0.0277778
        k(   27) = (   0.3333333   0.0000000   0.3333333), wk =   0.0138889
        k(   28) = (   0.0000000   0.5000000   0.0000000), wk =   0.0069444
        k(   29) = (  -0.0833333   0.5833333  -0.0833333), wk =   0.0277778
        k(   30) = (  -0.1666667   0.6666667  -0.1666667), wk =   0.0277778
        k(   31) = (   0.7500000  -0.2500000   0.7500000), wk =   0.0277778
        k(   32) = (   0.6666667  -0.1666667   0.6666667), wk =   0.0277778
        k(   33) = (   0.5833333  -0.0833333   0.5833333), wk =   0.0277778
        k(   34) = (   0.5000000   0.0000000   0.5000000), wk =   0.0138889
        k(   35) = (   0.0000000   0.6666667   0.0000000), wk =   0.0069444
        k(   36) = (  -0.0833333   0.7500000  -0.0833333), wk =   0.0277778
        k(   37) = (   0.8333333  -0.1666667   0.8333333), wk =   0.0277778
        k(   38) = (   0.7500000  -0.0833333   0.7500000), wk =   0.0277778
        k(   39) = (   0.6666667   0.0000000   0.6666667), wk =   0.0138889
        k(   40) = (   0.0000000   0.8333333   0.0000000), wk =   0.0069444
        k(   41) = (   0.9166667  -0.0833333   0.9166667), wk =   0.0277778
        k(   42) = (   0.8333333   0.0000000   0.8333333), wk =   0.0138889
        k(   43) = (   0.0000000  -1.0000000   0.0000000), wk =   0.0034722
        k(   44) = (  -0.1666667   0.3333333   0.0000000), wk =   0.0277778
        k(   45) = (  -0.2500000   0.4166667  -0.0833333), wk =   0.0555556
        k(   46) = (  -0.3333333   0.5000000  -0.1666667), wk =   0.0555556
        k(   47) = (   0.5833333  -0.4166667   0.7500000), wk =   0.0555556
        k(   48) = (   0.5000000  -0.3333333   0.6666667), wk =   0.0277778
        k(   49) = (  -0.1666667   0.5000000   0.0000000), wk =   0.0277778
        k(   50) = (  -0.2500000   0.5833333  -0.0833333), wk =   0.0555556
        k(   51) = (   0.6666667  -0.3333333   0.8333333), wk =   0.0555556
        k(   52) = (   0.5833333  -0.2500000   0.7500000), wk =   0.0555556
        k(   53) = (   0.5000000  -0.1666667   0.6666667), wk =   0.0555556
        k(   54) = (   0.4166667  -0.0833333   0.5833333), wk =   0.0555556
        k(   55) = (   0.3333333   0.0000000   0.5000000), wk =   0.0277778
        k(   56) = (  -0.1666667   0.6666667  -0.0000000), wk =   0.0277778
        k(   57) = (   0.7500000  -0.2500000   0.9166667), wk =   0.0555556
        k(   58) = (   0.6666667  -0.1666667   0.8333333), wk =   0.0555556
        k(   59) = (   0.5833333  -0.0833333   0.7500000), wk =   0.0555556
        k(   60) = (   0.5000000   0.0000000   0.6666667), wk =   0.0277778
        k(   61) = (   0.8333333  -0.1666667   1.0000000), wk =   0.0277778
        k(   62) = (   0.7500000  -0.0833333   0.9166667), wk =   0.0555556
        k(   63) = (   0.6666667   0.0000000   0.8333333), wk =   0.0277778
        k(   64) = (  -0.1666667  -1.0000000   0.0000000), wk =   0.0138889
        k(   65) = (   0.6666667  -0.3333333   1.0000000), wk =   0.0277778
        k(   66) = (   0.5833333  -0.2500000   0.9166667), wk =   0.0555556
        k(   67) = (   0.5000000  -0.1666667   0.8333333), wk =   0.0277778
        k(   68) = (   0.6666667  -0.1666667   1.0000000), wk =   0.0277778
        k(   69) = (   0.5833333  -0.0833333   0.9166667), wk =   0.0555556
        k(   70) = (   0.5000000   0.0000000   0.8333333), wk =   0.0277778
        k(   71) = (  -0.3333333  -1.0000000   0.0000000), wk =   0.0138889
        k(   72) = (  -0.5000000  -1.0000000   0.0000000), wk =   0.0069444

     Dense  grid:    19795 G-vectors     FFT dimensions: (  40,  40,  40)

     Estimated max dynamical RAM per process >      81.27 MB

     Initial potential from superposition of free atoms

     starting charge      35.9267, renormalised to      36.0000
     Starting wfcs are random

     total cpu time spent up to now is        2.1 secs

     Self-consistent Calculation

     iteration #  1     ecut=    70.00 Ry     beta= 0.70
     Davidson diagonalization with overlap
     ethr =  1.00E-02,  avg # of iterations =  9.2

     Threshold (ethr) on eigenvalues was too large:
     Diagonalizing with lowered threshold

     Davidson diagonalization with overlap
     ethr =  2.51E-04,  avg # of iterations =  2.6

     total cpu time spent up to now is       25.4 secs

     total energy              =    -485.18303971 Ry
     estimated scf accuracy    <       0.07693015 Ry

     iteration #  2     ecut=    70.00 Ry     beta= 0.70
     Davidson diagonalization with overlap
     ethr =  2.14E-04,  avg # of iterations =  2.1

     total cpu time spent up to now is       31.7 secs

     total energy              =    -485.20546676 Ry
     estimated scf accuracy    <       0.01808793 Ry

     iteration #  3     ecut=    70.00 Ry     beta= 0.70
     Davidson diagonalization with overlap
     ethr =  5.02E-05,  avg # of iterations =  2.0

     total cpu time spent up to now is       37.5 secs

     total energy              =    -485.20946353 Ry
     estimated scf accuracy    <       0.00020596 Ry

     iteration #  4     ecut=    70.00 Ry     beta= 0.70
     Davidson diagonalization with overlap
     ethr =  5.72E-07,  avg # of iterations =  3.0

     total cpu time spent up to now is       44.0 secs

     total energy              =    -485.20948419 Ry
     estimated scf accuracy    <       0.00001848 Ry

     iteration #  5     ecut=    70.00 Ry     beta= 0.70
     Davidson diagonalization with overlap
     ethr =  5.13E-08,  avg # of iterations =  2.0

     total cpu time spent up to now is       50.1 secs

     End of self-consistent calculation

          k = 0.0000 0.0000 0.0000 (  2445 PWs)   bands (ev):

   -83.5258 -44.7868 -44.7868 -44.7868 -17.1019 -17.1019 -17.1019 -17.0151
   -17.0151   4.9583   9.0213   9.0213   9.0213  10.0610  10.0610  21.9887
    21.9887  21.9887  24.2676  25.4290  25.4290  25.4290

          k =-0.0833 0.0833-0.0833 (  2481 PWs)   bands (ev):

   -83.5258 -44.7870 -44.7868 -44.7868 -17.1026 -17.1019 -17.1019 -17.0148
   -17.0148   5.0357   9.0387   9.0419   9.0419  10.0558  10.0558  20.8340
    21.7455  21.7455  24.5809  25.7023  25.7023  25.8811

          k =-0.1667 0.1667-0.1667 (  2487 PWs)   bands (ev):

   -83.5258 -44.7874 -44.7869 -44.7869 -17.1043 -17.1019 -17.1019 -17.0141
   -17.0141   5.2502   9.0964   9.0964   9.1154  10.0455  10.0455  18.8617
    21.2095  21.2095  24.5142  26.2306  26.2306  26.9685

          k =-0.2500 0.2500-0.2500 (  2493 PWs)   bands (ev):

   -83.5258 -44.7880 -44.7869 -44.7869 -17.1067 -17.1017 -17.1017 -17.0131
   -17.0131   5.5460   9.1640   9.1640   9.3221  10.0422  10.0422  16.8389
    20.6328  20.6328  24.3160  26.5109  26.5109  27.8344

          k =-0.3333 0.3333-0.3333 (  2473 PWs)   bands (ev):

   -83.5257 -44.7885 -44.7869 -44.7869 -17.1091 -17.1015 -17.1015 -17.0122
   -17.0122   5.8341   9.2207   9.2207   9.7589  10.0549  10.0549  14.9461
    20.1473  20.1473  24.1352  26.4329  26.4329  28.0076

          k =-0.4167 0.4167-0.4167 (  2470 PWs)   bands (ev):

   -83.5257 -44.7890 -44.7869 -44.7869 -17.1109 -17.1013 -17.1013 -17.0116
   -17.0116   6.0301   9.2533   9.2533  10.0767  10.0767  10.4904  13.2893
    19.8262  19.8262  24.0132  26.2736  26.2736  27.9096

          k = 0.5000-0.5000 0.5000 (  2488 PWs)   bands (ev):

   -83.5257 -44.7891 -44.7869 -44.7869 -17.1116 -17.1012 -17.1012 -17.0114
   -17.0114   6.0968   9.2631   9.2631  10.0876  10.0876  11.1911  12.2742
    19.7138  19.7138  23.9702  26.2062  26.2062  27.8583

          k = 0.0000 0.1667 0.0000 (  2481 PWs)   bands (ev):

   -83.5258 -44.7870 -44.7868 -44.7868 -17.1031 -17.1018 -17.1018 -17.0151
   -17.0144   5.0615   9.0237   9.0593   9.0593  10.0411  10.0673  21.1827
    21.2828  21.2828  24.8380  25.1394  26.2018  26.2018

          k =-0.0833 0.2500-0.0833 (  2496 PWs)   bands (ev):

   -83.5258 -44.7873 -44.7869 -44.7869 -17.1046 -17.1017 -17.1016 -17.0148
   -17.0135   5.2304   9.0536   9.1128   9.1184  10.0224  10.0699  19.5018
    20.6647  21.1021  24.8114  25.4599  26.8577  26.8687

          k =-0.1667 0.3333-0.1667 (  2492 PWs)   bands (ev):

   -83.5258 -44.7878 -44.7869 -44.7869 -17.1066 -17.1019 -17.1014 -17.0141
   -17.0124   5.4998   9.1291   9.1832   9.2565  10.0157  10.0714  17.5254
    20.0909  20.5978  24.7923  25.8906  27.0923  27.2631

          k =-0.2500 0.4167-0.2500 (  2482 PWs)   bands (ev):

   -83.5257 -44.7884 -44.7870 -44.7869 -17.1086 -17.1021 -17.1012 -17.0132
   -17.0115   5.7907   9.1998   9.2453   9.5746  10.0533  10.0798  15.6062
    19.6616  20.0103  24.6019  25.9657  27.1748  27.8777

          k =-0.3333 0.5000-0.3333 (  2468 PWs)   bands (ev):

   -83.5257 -44.7888 -44.7870 -44.7870 -17.1104 -17.1021 -17.1011 -17.0123
   -17.0110   6.0145   9.2441   9.2824   9.9384  10.0909  10.3570  13.8771
    19.4348  19.4910  24.4219  25.8799  26.8742  28.6216

          k = 0.5833-0.4167 0.5833 (  2468 PWs)   bands (ev):

   -83.5257 -44.7890 -44.7871 -44.7870 -17.1112 -17.1020 -17.1011 -17.0117
   -17.0109   6.1203   9.2644   9.2935  10.0297  10.0888  11.1316  12.5377
    19.1259  19.4431  24.3433  25.8706  26.6058  28.7816

          k = 0.5000-0.3333 0.5000 (  2472 PWs)   bands (ev):

   -83.5257 -44.7890 -44.7871 -44.7869 -17.1110 -17.1018 -17.1013 -17.0114
   -17.0113   6.0985   9.2674   9.2832  10.0429  10.0644  10.8681  12.9105
    18.9685  19.6891  24.3947  25.9643  26.4556  28.8368

          k = 0.4167-0.2500 0.4167 (  2471 PWs)   bands (ev):

   -83.5257 -44.7887 -44.7871 -44.7869 -17.1097 -17.1017 -17.1016 -17.0121
   -17.0116   5.9501   9.2504   9.2517   9.8939  10.0307  10.2037  14.4309
    19.0399  20.1407  24.5610  26.1674  26.4182  28.7316

          k = 0.3333-0.1667 0.3333 (  2485 PWs)   bands (ev):

   -83.5257 -44.7882 -44.7870 -44.7869 -17.1077 -17.1019 -17.1017 -17.0131
   -17.0122   5.6953   9.1938   9.2101   9.4531  10.0110  10.0917  16.2354
    19.3319  20.7291  24.7955  26.3783  26.4577  27.9588

          k = 0.2500-0.0833 0.2500 (  2488 PWs)   bands (ev):

   -83.5258 -44.7876 -44.7869 -44.7868 -17.1055 -17.1021 -17.1016 -17.0140
   -17.0131   5.4014   9.1246   9.1396   9.1941  10.0155  10.0696  18.1804
    19.8233  21.3394  25.0234  26.1040  26.4550  27.1010

          k = 0.1667-0.0000 0.1667 (  2487 PWs)   bands (ev):

   -83.5258 -44.7872 -44.7869 -44.7868 -17.1037 -17.1021 -17.1017 -17.0147
   -17.0141   5.1589   9.0630   9.0668   9.0937  10.0354  10.0629  19.9576
    20.6055  21.7681  24.9903  25.7078  25.7902  26.7745

          k = 0.0000 0.3333 0.0000 (  2497 PWs)   bands (ev):

   -83.5258 -44.7875 -44.7869 -44.7869 -17.1063 -17.1012 -17.1012 -17.0151
   -17.0124   5.3474   9.0482   9.1691   9.1691  10.0014  10.0847  19.7320
    19.9953  19.9953  24.0080  25.6808  27.6982  27.6984

          k =-0.0833 0.4167-0.0833 (  2488 PWs)   bands (ev):

   -83.5258 -44.7879 -44.7870 -44.7870 -17.1082 -17.1012 -17.1009 -17.0149
   -17.0112   5.5706   9.1042   9.2466   9.2671  10.0029  10.0935  18.1314
    19.3915  19.6823  24.0004  25.5286  27.6830  28.3267

          k =-0.1667 0.5000-0.1667 (  2487 PWs)   bands (ev):

   -83.5257 -44.7883 -44.7871 -44.7870 -17.1097 -17.1018 -17.1007 -17.0143
   -17.0101   5.8345   9.1926   9.3188   9.4607  10.0828  10.1013  16.3113
    18.9550  19.1064  24.1787  25.9330  27.4731  28.3839

          k =-0.2500 0.5833-0.2500 (  2473 PWs)   bands (ev):

   -83.5257 -44.7887 -44.7872 -44.7870 -17.1107 -17.1026 -17.1006 -17.0134
   -17.0096   6.0574   9.2486   9.3645   9.7250  10.1055  10.3999  14.5900
    18.4755  18.7468  24.1343  26.5661  27.9074  28.0415

          k = 0.6667-0.3333 0.6667 (  2472 PWs)   bands (ev):

   -83.5257 -44.7889 -44.7873 -44.7870 -17.1109 -17.1033 -17.1008 -17.0124
   -17.0096   6.1837   9.2721   9.3787   9.8910  10.0929  11.0853  13.1465
    17.9423  18.7992  24.1403  26.6246  27.6417  29.3062

          k = 0.5833-0.2500 0.5833 (  2470 PWs)   bands (ev):

   -83.5257 -44.7889 -44.7874 -44.7870 -17.1104 -17.1036 -17.1011 -17.0117
   -17.0102   6.1985   9.2810   9.3659   9.9612  10.0574  11.2979  12.8335
    17.5908  19.1111  24.3034  26.5707  27.3242  30.3476

          k = 0.5000-0.1667 0.5000 (  2478 PWs)   bands (ev):

   -83.5257 -44.7887 -44.7874 -44.7869 -17.1095 -17.1034 -17.1015 -17.0114
   -17.0111   6.1020   9.2808   9.3273   9.9168  10.0139  10.5790  14.1053
    17.4735  19.6415  24.6455  26.5403  27.1070  29.5916

          k = 0.4167-0.0833 0.4167 (  2472 PWs)   bands (ev):

   -83.5257 -44.7883 -44.7873 -44.7869 -17.1083 -17.1027 -17.1019 -17.0123
   -17.0116   5.9026   9.2619   9.2634   9.6431   9.9880  10.2053  15.7477
    17.6298  20.3057  25.1425  26.5520  26.8937  28.1077

          k = 0.3333 0.0000 0.3333 (  2485 PWs)   bands (ev):

   -83.5258 -44.7880 -44.7871 -44.7869 -17.1069 -17.1021 -17.1019 -17.0134
   -17.0122   5.6431   9.1876   9.2116   9.3468   9.9913  10.1088  17.3256
    18.2598  20.9557  25.5783  26.4876  26.4884  27.0134

          k = 0.0000 0.5000 0.0000 (  2477 PWs)   bands (ev):

   -83.5257 -44.7881 -44.7870 -44.7870 -17.1105 -17.1005 -17.1005 -17.0154
   -17.0097   5.7387   9.1230   9.3358   9.3358  10.0237  10.1086  18.0458
    18.7423  18.7423  23.2605  24.8396  29.3558  29.3558

          k =-0.0833 0.5833-0.0833 (  2464 PWs)   bands (ev):

   -83.5257 -44.7885 -44.7871 -44.7871 -17.1122 -17.1006 -17.1002 -17.0152
   -17.0085   5.9530   9.1915   9.4225   9.4517  10.1189  10.1467  16.7458
    18.1860  18.2607  23.3365  24.6364  29.3715  29.8129

          k =-0.1667 0.6667-0.1667 (  2471 PWs)   bands (ev):

   -83.5257 -44.7887 -44.7873 -44.7871 -17.1129 -17.1016 -17.1001 -17.0146
   -17.0078   6.1461   9.2563   9.4808   9.6043  10.1208  10.4977  15.2406
    17.4648  18.0191  23.5086  25.3542  29.1129  29.5440

          k = 0.7500-0.2500 0.7500 (  2470 PWs)   bands (ev):

   -83.5257 -44.7888 -44.7875 -44.7871 -17.1123 -17.1032 -17.1003 -17.0136
   -17.0078   6.2677   9.2830   9.5003   9.7569  10.1026  11.1336  13.8615
    16.7795  18.0564  23.5747  26.7011  28.9617  29.0539

          k = 0.6667-0.1667 0.6667 (  2474 PWs)   bands (ev):

   -83.5257 -44.7887 -44.7878 -44.7870 -17.1107 -17.1048 -17.1006 -17.0126
   -17.0085   6.3006   9.2912   9.4831   9.8709  10.0609  11.6381  13.1310
    16.2649  18.3725  23.7524  27.7497  28.5862  29.4261

          k = 0.5833-0.0833 0.5833 (  2473 PWs)   bands (ev):

   -83.5257 -44.7885 -44.7879 -44.7870 -17.1088 -17.1057 -17.1011 -17.0118
   -17.0097   6.2445   9.2959   9.4317   9.9110  10.0134  11.1015  13.9544
    16.0190  18.9230  24.0963  27.8778  28.1586  29.8227

          k = 0.5000 0.0000 0.5000 (  2461 PWs)   bands (ev):

   -83.5257 -44.7884 -44.7876 -44.7869 -17.1083 -17.1045 -17.1016 -17.0114
   -17.0110   6.1037   9.2914   9.3519   9.8370   9.9860  10.5029  15.1373
    16.3028  19.6185  24.6048  27.5664  27.6253  28.5128

          k = 0.0000 0.6667 0.0000 (  2465 PWs)   bands (ev):

   -83.5257 -44.7888 -44.7871 -44.7871 -17.1145 -17.0998 -17.0998 -17.0158
   -17.0070   6.1087   9.2036   9.5264   9.5264  10.1327  10.3093  16.2461
    17.7180  17.7180  22.7983  23.9636  31.0998  31.0998

          k =-0.0833 0.7500-0.0833 (  2464 PWs)   bands (ev):

   -83.5257 -44.7890 -44.7872 -44.7871 -17.1156 -17.1001 -17.0996 -17.0157
   -17.0061   6.2528   9.2361   9.5997   9.6181  10.1375  10.6766  15.2476
    17.0656  17.4151  22.9459  23.9778  31.1779  31.2453

          k = 0.8333-0.1667 0.8333 (  2458 PWs)   bands (ev):

   -83.5257 -44.7890 -44.7875 -44.7871 -17.1151 -17.1014 -17.0997 -17.0149
   -17.0060   6.3477   9.2692   9.6260   9.7057  10.1208  11.2766  14.2457
    16.1788  17.4027  23.1246  24.9877  30.6658  30.8262

          k = 0.7500-0.0833 0.7500 (  2469 PWs)   bands (ev):

   -83.5256 -44.7888 -44.7878 -44.7871 -17.1132 -17.1035 -17.1001 -17.0138
   -17.0067   6.3780   9.2882   9.6032   9.7965  10.0802  11.8686  13.5390
    15.4402  17.6867  23.3024  26.5855  29.9832  30.4510

          k = 0.6667 0.0000 0.6667 (  2492 PWs)   bands (ev):

   -83.5257 -44.7885 -44.7881 -44.7871 -17.1104 -17.1055 -17.1006 -17.0126
   -17.0081   6.3421   9.2965   9.5337   9.8722  10.0367  11.6940  13.7150
    15.2111  18.2232  23.6199  28.1791  29.1829  30.0215

          k = 0.0000 0.8333 0.0000 (  2458 PWs)   bands (ev):

   -83.5257 -44.7893 -44.7872 -44.7872 -17.1173 -17.0993 -17.0993 -17.0162
   -17.0050   6.3461   9.2184   9.6856   9.6856  10.1505  11.0058  14.5620
    17.0397  17.0397  22.5957  23.4092  32.9264  32.9264

          k = 0.9167-0.0833 0.9167 (  2468 PWs)   bands (ev):

   -83.5256 -44.7893 -44.7873 -44.7872 -17.1174 -17.0998 -17.0993 -17.0160
   -17.0048   6.4031   9.2312   9.7170   9.7292  10.1446  11.4854  13.8942
    16.5072  16.9582  22.7826  23.6464  32.3192  32.9352

          k = 0.8333 0.0000 0.8333 (  2464 PWs)   bands (ev):

   -83.5256 -44.7891 -44.7875 -44.7872 -17.1159 -17.1014 -17.0996 -17.0151
   -17.0054   6.4142   9.2634   9.6886   9.7544  10.1144  11.8801  13.5866
    15.7107  17.1868  23.0037  24.8669  31.2753  32.1454

          k = 0.0000-1.0000 0.0000 (  2466 PWs)   bands (ev):

   -83.5256 -44.7894 -44.7872 -44.7872 -17.1183 -17.0991 -17.0991 -17.0164
   -17.0043   6.4227   9.2125   9.7490   9.7490  10.1570  11.6101  13.6250
    16.8004  16.8004  22.5533  23.2119  33.4544  34.3011

          k =-0.1667 0.3333 0.0000 (  2486 PWs)   bands (ev):

   -83.5258 -44.7876 -44.7870 -44.7869 -17.1063 -17.1017 -17.1014 -17.0146
   -17.0124   5.4272   9.0959   9.1758   9.2028  10.0050  10.0812  18.5919
    19.3802  20.8599  24.8378  25.7787  26.7931  27.4786

          k =-0.2500 0.4167-0.0833 (  2487 PWs)   bands (ev):

   -83.5257 -44.7881 -44.7871 -44.7869 -17.1079 -17.1019 -17.1014 -17.0139
   -17.0114   5.6948   9.1776   9.2461   9.3817  10.0095  10.1060  16.9110
    18.6499  20.3594  25.0542  26.1071  26.5546  27.9553

          k =-0.3333 0.5000-0.1667 (  2467 PWs)   bands (ev):

   -83.5257 -44.7885 -44.7872 -44.7869 -17.1094 -17.1025 -17.1012 -17.0130
   -17.0107   5.9512   9.2429   9.2988   9.7009  10.0498  10.2231  15.1160
    18.2951  19.7490  24.9287  25.9155  27.2746  28.3080

          k = 0.5833-0.4167 0.7500 (  2466 PWs)   bands (ev):

   -83.5257 -44.7888 -44.7873 -44.7870 -17.1104 -17.1030 -17.1011 -17.0121
   -17.0103   6.1234   9.2724   9.3318   9.9187  10.0730  10.7530  13.5229
    18.1501  19.2494  24.7492  25.7576  27.4355  29.4446

          k = 0.5000-0.3333 0.6667 (  2466 PWs)   bands (ev):

   -83.5257 -44.7889 -44.7873 -44.7870 -17.1108 -17.1032 -17.1010 -17.0118
   -17.0103   6.1818   9.2790   9.3430   9.9770  10.0708  11.3649  12.5813
    18.1289  19.0443  24.6773  25.7075  27.4194  29.9782

          k =-0.1667 0.5000 0.0000 (  2484 PWs)   bands (ev):

   -83.5257 -44.7882 -44.7871 -44.7870 -17.1100 -17.1011 -17.1009 -17.0148
   -17.0099   5.7904   9.1702   9.3199   9.3906  10.0418  10.1155  17.2450
    18.2102  19.3469  24.0576  25.2471  27.7773  29.2985

          k =-0.2500 0.5833-0.0833 (  2474 PWs)   bands (ev):

   -83.5257 -44.7885 -44.7873 -44.7870 -17.1110 -17.1020 -17.1007 -17.0141
   -17.0091   6.0184   9.2515   9.3748   9.5834  10.0880  10.2795  15.7740
    17.5637  18.8159  24.3330  25.6741  27.4666  29.6046

          k = 0.6667-0.3333 0.8333 (  2469 PWs)   bands (ev):

   -83.5257 -44.7887 -44.7875 -44.7870 -17.1111 -17.1034 -17.1006 -17.0132
   -17.0087   6.1875   9.2894   9.4160   9.7683  10.0886  10.7795  14.2399
    17.2311  18.3634  24.3510  26.5271  27.5332  29.4760

          k = 0.5833-0.2500 0.7500 (  2468 PWs)   bands (ev):

   -83.5257 -44.7888 -44.7876 -44.7870 -17.1105 -17.1046 -17.1006 -17.0124
   -17.0090   6.2643   9.2979   9.4304   9.8878  10.0617  11.4663  13.0785
    16.9470  18.2821  24.4424  26.4943  28.4430  29.7239

          k = 0.5000-0.1667 0.6667 (  2462 PWs)   bands (ev):

   -83.5257 -44.7887 -44.7877 -44.7870 -17.1097 -17.1050 -17.1009 -17.0120
   -17.0095   6.2436   9.3026   9.4089   9.9110  10.0373  11.2390  13.4154
    16.7306  18.5982  24.6968  26.3132  28.4003  30.0052

          k = 0.4167-0.0833 0.5833 (  2464 PWs)   bands (ev):

   -83.5257 -44.7885 -44.7876 -44.7870 -17.1094 -17.1040 -17.1012 -17.0124
   -17.0100   6.1265   9.3045   9.3513   9.8085  10.0317  10.5678  14.7685
    16.7304  19.1691  25.1308  26.1676  27.4801  29.3250

          k = 0.3333 0.0000 0.5000 (  2472 PWs)   bands (ev):

   -83.5257 -44.7883 -44.7873 -44.7869 -17.1089 -17.1026 -17.1015 -17.0132
   -17.0105   5.9275   9.2608   9.2947   9.5917  10.0154  10.2180  16.1515
    17.2149  19.8347  25.7121  25.8234  26.5150  28.9056

          k =-0.1667 0.6667-0.0000 (  2464 PWs)   bands (ev):

   -83.5257 -44.7887 -44.7872 -44.7871 -17.1136 -17.1008 -17.1001 -17.0151
   -17.0074   6.1307   9.2437   9.4782   9.5786  10.1210  10.4052  15.8740
    17.2736  17.8977  23.5167  24.4646  29.2448  31.1468

          k = 0.7500-0.2500 0.9167 (  2467 PWs)   bands (ev):

   -83.5257 -44.7889 -44.7874 -44.7871 -17.1137 -17.1020 -17.1000 -17.0145
   -17.0070   6.2710   9.2889   9.5153   9.7029  10.1089  10.9075  14.7465
    16.5910  17.5041  23.8135  25.2104  28.7725  31.1990

          k = 0.6667-0.1667 0.8333 (  2470 PWs)   bands (ev):

   -83.5257 -44.7888 -44.7877 -44.7871 -17.1124 -17.1040 -17.1001 -17.0135
   -17.0073   6.3439   9.3049   9.5357   9.8089  10.0727  11.5817  13.6911
    15.9899  17.5011  23.9555  26.6628  28.3864  30.5866

          k = 0.5833-0.0833 0.7500 (  2473 PWs)   bands (ev):

   -83.5257 -44.7885 -44.7880 -44.7871 -17.1101 -17.1060 -17.1004 -17.0125
   -17.0081   6.3420   9.3111   9.5095   9.8895  10.0234  11.7375  13.5186
    15.5748  17.8627  24.2163  27.5793  28.6787  29.5768

          k = 0.5000 0.0000 0.6667 (  2471 PWs)   bands (ev):

   -83.5257 -44.7884 -44.7879 -44.7870 -17.1087 -17.1063 -17.1009 -17.0121
   -17.0092   6.2665   9.3176   9.4367   9.8863  10.0131  11.1243  14.3112
    15.6572  18.4651  24.6329  27.2635  27.8910  30.1664

          k = 0.8333-0.1667 1.0000 (  2466 PWs)   bands (ev):

   -83.5257 -44.7891 -44.7873 -44.7872 -17.1162 -17.1005 -17.0995 -17.0155
   -17.0055   6.3496   9.2532   9.6276   9.7155  10.1322  11.1458  14.4715
    16.6735  16.9279  23.2307  23.9897  30.6943  32.7455

          k = 0.7500-0.0833 0.9167 (  2468 PWs)   bands (ev):

   -83.5256 -44.7891 -44.7876 -44.7872 -17.1151 -17.1021 -17.0996 -17.0147
   -17.0058   6.4000   9.2817   9.6310   9.7784  10.1010  11.7391  13.8064
    15.8884  16.8880  23.5656  24.9804  30.0970  31.6532

          k = 0.6667 0.0000 0.8333 (  2468 PWs)   bands (ev):

   -83.5256 -44.7888 -44.7879 -44.7871 -17.1128 -17.1043 -17.0999 -17.0136
   -17.0067   6.3972   9.3028   9.5954   9.8332  10.0549  12.0448  13.5478
    15.2666  17.2518  23.8274  26.6230  29.3810  30.1426

          k =-0.1667-1.0000 0.0000 (  2470 PWs)   bands (ev):

   -83.5256 -44.7893 -44.7874 -44.7872 -17.1171 -17.1004 -17.0993 -17.0157
   -17.0049   6.4209   9.2454   9.6956   9.7682  10.1322  11.7612  13.6180
    16.4838  16.5817  23.1466  23.8306  31.6701  32.7108

          k = 0.6667-0.3333 1.0000 (  2461 PWs)   bands (ev):

   -83.5257 -44.7886 -44.7875 -44.7871 -17.1113 -17.1032 -17.1006 -17.0135
   -17.0084   6.1893   9.3242   9.3965   9.7310  10.0731  10.6757  15.1066
    16.4168  18.2247  25.1289  25.6814  27.0862  31.1544

          k = 0.5833-0.2500 0.9167 (  2467 PWs)   bands (ev):

   -83.5257 -44.7886 -44.7878 -44.7871 -17.1106 -17.1053 -17.1004 -17.0128
   -17.0082   6.3032   9.3351   9.4523   9.8480  10.0414  11.3015  14.0427
    16.0374  17.6611  25.2581  26.3023  27.4046  30.5637

          k = 0.5000-0.1667 0.8333 (  2470 PWs)   bands (ev):

   -83.5257 -44.7886 -44.7879 -44.7871 -17.1097 -17.1066 -17.1003 -17.0124
   -17.0082   6.3420   9.3296   9.4823   9.9091  10.0071  11.7851  13.3558
    15.9984  17.4220  25.2460  26.3153  28.6223  29.3919

          k = 0.6667-0.1667 1.0000 (  2460 PWs)   bands (ev):

   -83.5256 -44.7888 -44.7877 -44.7872 -17.1130 -17.1037 -17.0998 -17.0138
   -17.0068   6.3602   9.3216   9.5312   9.8068  10.0694  11.4876  14.1790
    15.9603  16.8348  24.7224  25.4897  28.2259  31.1726

          k = 0.5833-0.0833 0.9167 (  2470 PWs)   bands (ev):

   -83.5256 -44.7886 -44.7880 -44.7872 -17.1113 -17.1060 -17.0998 -17.0130
   -17.0072   6.3969   9.3331   9.5495   9.8829  10.0101  12.0303  13.6436
    15.5401  16.6208  25.1165  26.7711  27.8921  29.3712

          k = 0.5000 0.0000 0.8333 (  2471 PWs)   bands (ev):

   -83.5256 -44.7885 -44.7881 -44.7871 -17.1096 -17.1073 -17.1000 -17.0126
   -17.0078   6.3771   9.3398   9.5161   9.9200   9.9794  11.8778  13.7706
    15.3977  16.9914  25.4002  26.9952  27.7765  29.0534

          k =-0.3333-1.0000 0.0000 (  2472 PWs)   bands (ev):

   -83.5256 -44.7889 -44.7877 -44.7872 -17.1137 -17.1039 -17.0996 -17.0139
   -17.0062   6.4175   9.3111   9.6033   9.8334  10.0574  12.0795  13.6025
    15.8950  16.2001  24.5907  25.4140  29.2977  30.1075

          k =-0.5000-1.0000 0.0000 (  2488 PWs)   bands (ev):

   -83.5256 -44.7885 -44.7882 -44.7872 -17.1100 -17.1076 -17.0997 -17.0128
   -17.0072   6.4157   9.3429   9.5625   9.9426   9.9450  12.2550  13.5939
    15.6048  16.0299  25.9214  27.3516  27.6636  27.8357

     the Fermi energy is    22.3343 ev

!    total energy              =    -485.20948834 Ry
     estimated scf accuracy    <       0.00000179 Ry

     The total energy is the sum of the following terms:
     one-electron contribution =    -204.57946323 Ry
     hartree contribution      =     118.55010299 Ry
     xc contribution           =     -47.08927395 Ry
     ewald contribution        =    -352.09085415 Ry

     convergence has been achieved in   5 iterations

     Forces acting on atoms (cartesian axes, Ry/au):

     atom    1 type  1   force =     0.00000000    0.00000000    0.00000000
     atom    2 type  2   force =     0.00000000    0.00000000    0.00000000

     Total force =     0.000000     Total SCF correction =     0.000000


     Computing stress (Cartesian axis) and pressure

          total   stress  (Ry/bohr**3)                   (kbar)     P=     1192.77
   0.00810830   0.00000000   0.00000000         1192.77        0.00        0.00
   0.00000000   0.00810830   0.00000000            0.00     1192.77        0.00
   0.00000000   0.00000000   0.00810830            0.00        0.00     1192.77


     Writing all to output data dir ./tmp/CdTe.save/ :
     XML data file, charge density, pseudopotentials, collected wavefunctions

     init_run     :      1.96s CPU      2.04s WALL (       1 calls)
     electrons    :     47.05s CPU     48.06s WALL (       1 calls)
     forces       :      0.55s CPU      0.56s WALL (       1 calls)
     stress       :      2.08s CPU      2.10s WALL (       1 calls)

     Called by init_run:
     wfcinit      :      1.86s CPU      1.94s WALL (       1 calls)
     potinit      :      0.04s CPU      0.05s WALL (       1 calls)
     hinit0       :      0.04s CPU      0.04s WALL (       1 calls)

     Called by electrons:
     c_bands      :     42.25s CPU     43.12s WALL (       6 calls)
     sum_band     :      4.72s CPU      4.84s WALL (       6 calls)
     v_of_rho     :      0.09s CPU      0.11s WALL (       6 calls)
     mix_rho      :      0.01s CPU      0.01s WALL (       6 calls)

     Called by c_bands:
     init_us_2    :      0.54s CPU      0.57s WALL (    1080 calls)
     cegterg      :     41.41s CPU     42.26s WALL (     432 calls)

     Called by *egterg:
     cdiaghg      :      0.70s CPU      0.72s WALL (    1859 calls)
     h_psi        :     31.00s CPU     31.82s WALL (    2003 calls)
     g_psi        :      0.16s CPU      0.17s WALL (    1499 calls)

     Called by h_psi:
     h_psi:calbec :      2.70s CPU      2.73s WALL (    2003 calls)
     vloc_psi     :     25.69s CPU     26.45s WALL (    2003 calls)
                                        0.00s GPU  (    2003 calls)
     add_vuspsi   :      2.49s CPU      2.52s WALL (    2003 calls)

     General routines
     calbec       :      4.70s CPU      4.77s WALL (    3227 calls)
     fft          :      0.04s CPU      0.04s WALL (      68 calls)
     ffts         :      0.00s CPU      0.00s WALL (       6 calls)
     fftw         :     26.12s CPU     27.03s WALL (   76486 calls)


     PWSCF        :     51.70s CPU     52.89s WALL


   This run was terminated on:  19:16:59  11Jan2026            

=------------------------------------------------------------------------------=
   JOB DONE.
=------------------------------------------------------------------------------=
