
     Program PWSCF v.7.5 starts on 11Jan2026 at 19:15:11 

     This program is part of the open-source Quantum ESPRESSO suite
     for quantum simulation of materials; please cite
         "P. Giannozzi et al., J. Phys.:Condens. Matter 21 395502 (2009);
         "P. Giannozzi et al., J. Phys.:Condens. Matter 29 465901 (2017);
         "P. Giannozzi et al., J. Chem. Phys. 152 154105 (2020);
          URL http://www.quantum-espresso.org", 
     in publications or presentations arising from this work. More details at
     http://www.quantum-espresso.org/quote

     Serial version
     731 MiB available memory on the printing compute node when the environment starts

     Waiting for input...
     Reading input from standard input

     Current dimensions of program PWSCF are:
     Max number of different atomic species (ntypx) = 10
     Max number of k-points (npk) =  40000
     Max angular momentum in pseudopotentials (lmaxx) =  4
     Message from routine iosys:
     BEWARE:  force calculation with tetrahedra (not recommanded)
     Message from routine iosys:
     BEWARE: stress calculation with tetrahedra (not recommanded)
     [opt_tetra]  Optimized tetrahedron method is used.


     G-vector sticks info
     --------------------
     sticks:   dense  smooth     PW     G-vecs:    dense   smooth      PW
     Sum         955     955    295                19795    19795    3287

     Using Slab Decomposition



     bravais-lattice index     =            2
     lattice parameter (alat)  =      10.0000  a.u.
     unit-cell volume          =     250.0000 (a.u.)^3
     number of atoms/cell      =            2
     number of atomic types    =            2
     number of electrons       =        36.00
     number of Kohn-Sham states=           22
     kinetic-energy cutoff     =      70.0000  Ry
     charge density cutoff     =     280.0000  Ry
     scf convergence threshold =      1.0E-05
     mixing beta               =       0.7000
     number of iterations used =            8  plain     mixing
     Exchange-correlation= PBE
                           (   1   4   3   4   0   0   0)

     celldm(1)=  10.000000  celldm(2)=   0.000000  celldm(3)=   0.000000
     celldm(4)=   0.000000  celldm(5)=   0.000000  celldm(6)=   0.000000

     crystal axes: (cart. coord. in units of alat)
               a(1) = (  -0.500000   0.000000   0.500000 )  
               a(2) = (   0.000000   0.500000   0.500000 )  
               a(3) = (  -0.500000   0.500000   0.000000 )  

     reciprocal axes: (cart. coord. in units 2 pi/alat)
               b(1) = ( -1.000000 -1.000000  1.000000 )  
               b(2) = (  1.000000  1.000000  1.000000 )  
               b(3) = ( -1.000000  1.000000 -1.000000 )  


     PseudoPot. # 1 for Cd read from file:
     ./PSEUDO/Cd_ONCV_PBE-1.2.upf
     MD5 check sum: 810a600e5a5ac944c8c8f48f0d721646
     Pseudo is Norm-conserving, Zval = 20.0
     Generated using ONCVPSP code by D. R. Hamann
     Using radial grid of  602 points,  6 beta functions with: 
                l(1) =   0
                l(2) =   0
                l(3) =   1
                l(4) =   1
                l(5) =   2
                l(6) =   2

     PseudoPot. # 2 for Te read from file:
     ./PSEUDO/Te_ONCV_PBE-1.2.upf
     MD5 check sum: dd4de4dac1e38587f63aaf3700bb29d3
     Pseudo is Norm-conserving, Zval = 16.0
     Generated using ONCVPSP code by D. R. Hamann
     Using radial grid of  602 points,  6 beta functions with: 
                l(1) =   0
                l(2) =   0
                l(3) =   1
                l(4) =   1
                l(5) =   2
                l(6) =   2

     atomic species   valence    mass     pseudopotential
     Cd               20.00   112.40000     Cd( 1.00)
     Te               16.00   127.60000     Te( 1.00)

     24 Sym. Ops. (no inversion) found



   Cartesian axes

     site n.     atom                  positions (alat units)
         1        Cd     tau(   1) = (   0.0000000   0.0000000   0.0000000  )
         2        Te     tau(   2) = (  -0.2500000   0.2500000   0.2500000  )

     number of k points=    29 (tetrahedron method)
                       cart. coord. in units 2pi/alat
        k(    1) = (   0.0000000   0.0000000   0.0000000), wk =   0.0039062
        k(    2) = (  -0.1250000   0.1250000  -0.1250000), wk =   0.0312500
        k(    3) = (  -0.2500000   0.2500000  -0.2500000), wk =   0.0312500
        k(    4) = (  -0.3750000   0.3750000  -0.3750000), wk =   0.0312500
        k(    5) = (   0.5000000  -0.5000000   0.5000000), wk =   0.0156250
        k(    6) = (   0.0000000   0.2500000   0.0000000), wk =   0.0234375
        k(    7) = (  -0.1250000   0.3750000  -0.1250000), wk =   0.0937500
        k(    8) = (  -0.2500000   0.5000000  -0.2500000), wk =   0.0937500
        k(    9) = (   0.6250000  -0.3750000   0.6250000), wk =   0.0937500
        k(   10) = (   0.5000000  -0.2500000   0.5000000), wk =   0.0937500
        k(   11) = (   0.3750000  -0.1250000   0.3750000), wk =   0.0937500
        k(   12) = (   0.2500000   0.0000000   0.2500000), wk =   0.0468750
        k(   13) = (   0.0000000   0.5000000   0.0000000), wk =   0.0234375
        k(   14) = (  -0.1250000   0.6250000  -0.1250000), wk =   0.0937500
        k(   15) = (   0.7500000  -0.2500000   0.7500000), wk =   0.0937500
        k(   16) = (   0.6250000  -0.1250000   0.6250000), wk =   0.0937500
        k(   17) = (   0.5000000   0.0000000   0.5000000), wk =   0.0468750
        k(   18) = (   0.0000000   0.7500000   0.0000000), wk =   0.0234375
        k(   19) = (   0.8750000  -0.1250000   0.8750000), wk =   0.0937500
        k(   20) = (   0.7500000   0.0000000   0.7500000), wk =   0.0468750
        k(   21) = (   0.0000000  -1.0000000   0.0000000), wk =   0.0117188
        k(   22) = (  -0.2500000   0.5000000   0.0000000), wk =   0.0937500
        k(   23) = (   0.6250000  -0.3750000   0.8750000), wk =   0.1875000
        k(   24) = (   0.5000000  -0.2500000   0.7500000), wk =   0.0937500
        k(   25) = (   0.7500000  -0.2500000   1.0000000), wk =   0.0937500
        k(   26) = (   0.6250000  -0.1250000   0.8750000), wk =   0.1875000
        k(   27) = (   0.5000000   0.0000000   0.7500000), wk =   0.0937500
        k(   28) = (  -0.2500000  -1.0000000   0.0000000), wk =   0.0468750
        k(   29) = (  -0.5000000  -1.0000000   0.0000000), wk =   0.0234375

     Dense  grid:    19795 G-vectors     FFT dimensions: (  40,  40,  40)

     Estimated max dynamical RAM per process >      45.59 MB

     Initial potential from superposition of free atoms

     starting charge      35.9267, renormalised to      36.0000
     Starting wfcs are random

     total cpu time spent up to now is        0.9 secs

     Self-consistent Calculation

     iteration #  1     ecut=    70.00 Ry     beta= 0.70
     Davidson diagonalization with overlap
     ethr =  1.00E-02,  avg # of iterations =  9.4

     Threshold (ethr) on eigenvalues was too large:
     Diagonalizing with lowered threshold

     Davidson diagonalization with overlap
     ethr =  2.50E-04,  avg # of iterations =  2.9

     total cpu time spent up to now is        9.9 secs

     total energy              =    -485.18268575 Ry
     estimated scf accuracy    <       0.07718281 Ry

     iteration #  2     ecut=    70.00 Ry     beta= 0.70
     Davidson diagonalization with overlap
     ethr =  2.14E-04,  avg # of iterations =  2.0

     total cpu time spent up to now is       12.5 secs

     total energy              =    -485.20523854 Ry
     estimated scf accuracy    <       0.01819001 Ry

     iteration #  3     ecut=    70.00 Ry     beta= 0.70
     Davidson diagonalization with overlap
     ethr =  5.05E-05,  avg # of iterations =  2.0

     total cpu time spent up to now is       14.9 secs

     total energy              =    -485.20924282 Ry
     estimated scf accuracy    <       0.00020670 Ry

     iteration #  4     ecut=    70.00 Ry     beta= 0.70
     Davidson diagonalization with overlap
     ethr =  5.74E-07,  avg # of iterations =  2.6

     total cpu time spent up to now is       17.4 secs

     total energy              =    -485.20926405 Ry
     estimated scf accuracy    <       0.00001894 Ry

     iteration #  5     ecut=    70.00 Ry     beta= 0.70
     Davidson diagonalization with overlap
     ethr =  5.26E-08,  avg # of iterations =  2.0

     total cpu time spent up to now is       19.9 secs

     End of self-consistent calculation

          k = 0.0000 0.0000 0.0000 (  2445 PWs)   bands (ev):

   -83.5254 -44.7863 -44.7863 -44.7863 -17.0993 -17.0993 -17.0993 -17.0124
   -17.0124   4.9594   9.0219   9.0219   9.0219  10.0614  10.0614  21.9898
    21.9898  21.9898  24.2686  25.4294  25.4294  25.4294

          k =-0.1250 0.1250-0.1250 (  2502 PWs)   bands (ev):

   -83.5254 -44.7867 -44.7863 -44.7863 -17.1007 -17.0993 -17.0993 -17.0118
   -17.0118   5.1295   9.0666   9.0666   9.0669  10.0510  10.0510  19.8754
    21.4961  21.4961  24.5865  25.9684  25.9684  26.4090

          k =-0.2500 0.2500-0.2500 (  2493 PWs)   bands (ev):

   -83.5253 -44.7875 -44.7864 -44.7864 -17.1041 -17.0991 -17.0991 -17.0105
   -17.0105   5.5472   9.1646   9.1646   9.3227  10.0426  10.0426  16.8397
    20.6338  20.6338  24.3169  26.5114  26.5114  27.8352

          k =-0.3750 0.3750-0.3750 (  2458 PWs)   bands (ev):

   -83.5252 -44.7883 -44.7864 -44.7864 -17.1075 -17.0988 -17.0988 -17.0092
   -17.0092   5.9484   9.2408   9.2408  10.0662  10.0662  10.0892  14.0811
    19.9638  19.9638  24.0661  26.3488  26.3488  27.9631

          k = 0.5000-0.5000 0.5000 (  2488 PWs)   bands (ev):

   -83.5252 -44.7886 -44.7865 -44.7865 -17.1089 -17.0986 -17.0986 -17.0087
   -17.0087   6.0980   9.2637   9.2637  10.0880  10.0880  11.1917  12.2749
    19.7148  19.7148  23.9711  26.2066  26.2067  27.8589

          k = 0.0000 0.2500 0.0000 (  2489 PWs)   bands (ev):

   -83.5253 -44.7867 -44.7864 -44.7864 -17.1019 -17.0989 -17.0989 -17.0124
   -17.0109   5.1862   9.0316   9.1064   9.1064  10.0211  10.0752  20.4945
    20.6563  20.6563  24.4529  25.5755  26.9149  26.9149

          k =-0.1250 0.3750-0.1250 (  2491 PWs)   bands (ev):

   -83.5253 -44.7873 -44.7865 -44.7864 -17.1046 -17.0990 -17.0985 -17.0119
   -17.0092   5.5222   9.1141   9.2108   9.2537  10.0076  10.0838  17.8586
    19.7460  20.1929  24.5281  25.8804  26.9848  27.7766

          k =-0.2500 0.5000-0.2500 (  2469 PWs)   bands (ev):

   -83.5252 -44.7880 -44.7866 -44.7865 -17.1070 -17.0997 -17.0983 -17.0106
   -17.0079   5.9280   9.2243   9.3015   9.6810  10.0959  10.1626  15.0679
    19.1852  19.2978  24.4654  26.1843  27.5855  27.8276

          k = 0.6250-0.3750 0.6250 (  2473 PWs)   bands (ev):

   -83.5252 -44.7885 -44.7867 -44.7865 -17.1083 -17.1001 -17.0983 -17.0093
   -17.0077   6.1492   9.2677   9.3306   9.9661  10.0908  11.0986  12.8154
    18.5610  19.1501  24.3671  26.0727  27.0626  29.4607

          k = 0.5000-0.2500 0.5000 (  2467 PWs)   bands (ev):

   -83.5252 -44.7883 -44.7867 -44.7865 -17.1077 -17.0999 -17.0988 -17.0087
   -17.0085   6.1015   9.2736   9.3050   9.9864  10.0403  10.6929  13.4745
    18.2540  19.6660  24.6068  26.0943  26.7467  29.5560

          k = 0.3750-0.1250 0.3750 (  2479 PWs)   bands (ev):

   -83.5253 -44.7878 -44.7866 -44.7864 -17.1054 -17.0994 -17.0993 -17.0101
   -17.0092   5.7967   9.2252   9.2377   9.5415   9.9981  10.1363  15.9808
    18.4814  20.5712  25.1340  26.3126  26.5744  28.0404

          k = 0.2500 0.0000 0.2500 (  2501 PWs)   bands (ev):

   -83.5253 -44.7871 -44.7865 -44.7863 -17.1027 -17.0995 -17.0990 -17.0115
   -17.0105   5.3834   9.1203   9.1338   9.1823  10.0122  10.0743  18.6081
    19.4304  21.4469  25.3819  26.0451  26.1622  26.9843

          k = 0.0000 0.5000 0.0000 (  2477 PWs)   bands (ev):

   -83.5253 -44.7876 -44.7865 -44.7865 -17.1078 -17.0979 -17.0979 -17.0127
   -17.0070   5.7399   9.1235   9.3364   9.3364  10.0242  10.1090  18.0468
    18.7431  18.7431  23.2611  24.8402  29.3565  29.3565

          k =-0.1250 0.6250-0.1250 (  2471 PWs)   bands (ev):

   -83.5252 -44.7881 -44.7867 -44.7866 -17.1101 -17.0984 -17.0975 -17.0123
   -17.0054   6.0573   9.2289   9.4569   9.5257  10.1219  10.2862  15.9935
    17.8347  18.1075  23.4555  24.8704  29.2420  29.7371

          k = 0.7500-0.2500 0.7500 (  2470 PWs)   bands (ev):

   -83.5252 -44.7883 -44.7870 -44.7866 -17.1097 -17.1005 -17.0976 -17.0109
   -17.0051   6.2689   9.2836   9.5009   9.7573  10.1030  11.1342  13.8623
    16.7803  18.0572  23.5753  26.7018  28.9625  29.0545

          k = 0.6250-0.1250 0.6250 (  2476 PWs)   bands (ev):

   -83.5252 -44.7881 -44.7873 -44.7865 -17.1070 -17.1028 -17.0982 -17.0094
   -17.0063   6.2848   9.2944   9.4621   9.9029  10.0365  11.4461  13.4076
    16.1014  18.6238  23.9032  27.8828  28.3729  29.9669

          k = 0.5000 0.0000 0.5000 (  2461 PWs)   bands (ev):

   -83.5252 -44.7879 -44.7872 -44.7865 -17.1057 -17.1019 -17.0990 -17.0088
   -17.0084   6.1050   9.2919   9.3525   9.8374   9.9864  10.5035  15.1381
    16.3036  19.6194  24.6054  27.5671  27.6257  28.5138

          k = 0.0000 0.7500 0.0000 (  2470 PWs)   bands (ev):

   -83.5252 -44.7886 -44.7867 -44.7867 -17.1134 -17.0969 -17.0969 -17.0133
   -17.0032   6.2489   9.2183   9.6147   9.6147  10.1431  10.6135  15.3701
    17.3299  17.3299  22.6702  23.6448  32.0077  32.0079

          k = 0.8750-0.1250 0.8750 (  2470 PWs)   bands (ev):

   -83.5252 -44.7887 -44.7869 -44.7867 -17.1138 -17.0979 -17.0968 -17.0128
   -17.0026   6.3806   9.2509   9.6785   9.7136  10.1331  11.3784  14.1225
    16.2752  17.1493  22.9475  24.2287  31.5015  31.8825

          k = 0.7500 0.0000 0.7500 (  2482 PWs)   bands (ev):

   -83.5252 -44.7883 -44.7873 -44.7866 -17.1107 -17.1009 -17.0974 -17.0111
   -17.0039   6.3931   9.2882   9.6195   9.8047  10.0756  12.0001  13.5241
    15.2055  17.6402  23.2699  26.5681  30.1634  30.9196

          k = 0.0000-1.0000 0.0000 (  2466 PWs)   bands (ev):

   -83.5252 -44.7889 -44.7867 -44.7867 -17.1157 -17.0965 -17.0965 -17.0137
   -17.0016   6.4239   9.2129   9.7496   9.7496  10.1574  11.6107  13.6257
    16.8012  16.8012  22.5539  23.2125  33.4547  34.3020

          k =-0.2500 0.5000 0.0000 (  2472 PWs)   bands (ev):

   -83.5253 -44.7878 -44.7867 -44.7865 -17.1068 -17.0991 -17.0986 -17.0114
   -17.0075   5.8519   9.2156   9.3065   9.4718  10.0362  10.1517  16.6983
    17.7236  19.6492  24.8715  25.6948  26.8335  29.1743

          k = 0.6250-0.3750 0.8750 (  2471 PWs)   bands (ev):

   -83.5252 -44.7881 -44.7870 -44.7865 -17.1076 -17.1010 -17.0982 -17.0102
   -17.0067   6.1544   9.3004   9.3759   9.7876  10.0647  10.6548  14.4945
    17.0400  18.7505  25.0043  26.0504  27.4088  29.4916

          k = 0.5000-0.2500 0.7500 (  2458 PWs)   bands (ev):

   -83.5252 -44.7883 -44.7871 -44.7865 -17.1075 -17.1023 -17.0980 -17.0094
   -17.0065   6.2650   9.3039   9.4169   9.9190  10.0460  11.5424  12.9433
    16.9767  18.2934  24.9033  25.9218  28.5899  30.2564

          k = 0.7500-0.2500 1.0000 (  2474 PWs)   bands (ev):

   -83.5252 -44.7884 -44.7869 -44.7866 -17.1112 -17.0992 -17.0973 -17.0119
   -17.0042   6.2728   9.2924   9.5079   9.7061  10.1082  10.8775  14.9268
    16.5420  17.3822  24.0596  24.8099  28.7459  31.9545

          k = 0.6250-0.1250 0.8750 (  2473 PWs)   bands (ev):

   -83.5252 -44.7882 -44.7874 -44.7867 -17.1093 -17.1023 -17.0973 -17.0106
   -17.0045   6.3754   9.3209   9.5423   9.8476  10.0445  11.8160  13.6653
    15.6988  17.0692  24.4859  26.6891  28.1131  30.2589

          k = 0.5000 0.0000 0.7500 (  2466 PWs)   bands (ev):

   -83.5252 -44.7880 -44.7876 -44.7866 -17.1065 -17.1042 -17.0978 -17.0097
   -17.0057   6.3312   9.3322   9.4773   9.9006  10.0037  11.5105  13.9996
    15.4698  17.7207  24.9733  27.0773  27.8406  29.8353

          k =-0.2500-1.0000 0.0000 (  2468 PWs)   bands (ev):

   -83.5252 -44.7886 -44.7870 -44.7867 -17.1130 -17.0993 -17.0968 -17.0122
   -17.0028   6.4204   9.2789   9.6480   9.7948  10.1013  11.9172  13.6112
    16.1860  16.3838  23.7987  24.5309  30.4756  31.4166

          k =-0.5000-1.0000 0.0000 (  2488 PWs)   bands (ev):

   -83.5252 -44.7880 -44.7877 -44.7867 -17.1074 -17.1049 -17.0971 -17.0101
   -17.0046   6.4169   9.3434   9.5630   9.9430   9.9455  12.2557  13.5946
    15.6055  16.0306  25.9221  27.3524  27.6642  27.8364

     the Fermi energy is    22.4023 ev

!    total energy              =    -485.20926834 Ry
     estimated scf accuracy    <       0.00000181 Ry

     The total energy is the sum of the following terms:
     one-electron contribution =    -204.58210998 Ry
     hartree contribution      =     118.55331569 Ry
     xc contribution           =     -47.08961990 Ry
     ewald contribution        =    -352.09085415 Ry

     convergence has been achieved in   5 iterations

     Forces acting on atoms (cartesian axes, Ry/au):

     atom    1 type  1   force =     0.00000000   -0.00000000    0.00000000
     atom    2 type  2   force =     0.00000000   -0.00000000    0.00000000

     Total force =     0.000000     Total SCF correction =     0.000000


     Computing stress (Cartesian axis) and pressure

          total   stress  (Ry/bohr**3)                   (kbar)     P=     1193.12
   0.00811068   0.00000000  -0.00000000         1193.12        0.00       -0.00
   0.00000000   0.00811068  -0.00000000            0.00     1193.12       -0.00
  -0.00000000  -0.00000000   0.00811068           -0.00       -0.00     1193.12


     Writing all to output data dir ./tmp/CdTe.save/ :
     XML data file, charge density, pseudopotentials, collected wavefunctions

     init_run     :      0.80s CPU      0.84s WALL (       1 calls)
     electrons    :     18.52s CPU     19.09s WALL (       1 calls)
     forces       :      0.22s CPU      0.23s WALL (       1 calls)
     stress       :      0.84s CPU      0.86s WALL (       1 calls)

     Called by init_run:
     wfcinit      :      0.71s CPU      0.74s WALL (       1 calls)
     potinit      :      0.03s CPU      0.04s WALL (       1 calls)
     hinit0       :      0.04s CPU      0.04s WALL (       1 calls)

     Called by electrons:
     c_bands      :     16.32s CPU     16.82s WALL (       6 calls)
     sum_band     :      2.11s CPU      2.18s WALL (       6 calls)
     v_of_rho     :      0.09s CPU      0.10s WALL (       6 calls)
     mix_rho      :      0.01s CPU      0.01s WALL (       6 calls)

     Called by c_bands:
     init_us_2    :      0.20s CPU      0.23s WALL (     435 calls)
     cegterg      :     16.01s CPU     16.47s WALL (     174 calls)

     Called by *egterg:
     cdiaghg      :      0.27s CPU      0.28s WALL (     749 calls)
     h_psi        :     11.95s CPU     12.37s WALL (     807 calls)
     g_psi        :      0.06s CPU      0.07s WALL (     604 calls)

     Called by h_psi:
     h_psi:calbec :      1.05s CPU      1.06s WALL (     807 calls)
     vloc_psi     :      9.87s CPU     10.25s WALL (     807 calls)
                                        0.00s GPU  (     807 calls)
     add_vuspsi   :      0.96s CPU      0.98s WALL (     807 calls)

     General routines
     calbec       :      1.85s CPU      1.87s WALL (    1300 calls)
     fft          :      0.04s CPU      0.04s WALL (      68 calls)
     ffts         :      0.00s CPU      0.00s WALL (       6 calls)
     fftw         :     10.07s CPU     10.49s WALL (   30764 calls)


     PWSCF        :     20.41s CPU     21.07s WALL


   This run was terminated on:  19:15:32  11Jan2026            

=------------------------------------------------------------------------------=
   JOB DONE.
=------------------------------------------------------------------------------=
