
     Program PWSCF v.7.5 starts on 21Dec2025 at 14:37:10 

     This program is part of the open-source Quantum ESPRESSO suite
     for quantum simulation of materials; please cite
         "P. Giannozzi et al., J. Phys.:Condens. Matter 21 395502 (2009);
         "P. Giannozzi et al., J. Phys.:Condens. Matter 29 465901 (2017);
         "P. Giannozzi et al., J. Chem. Phys. 152 154105 (2020);
          URL http://www.quantum-espresso.org", 
     in publications or presentations arising from this work. More details at
     http://www.quantum-espresso.org/quote

     Serial version
     3061 MiB available memory on the printing compute node when the environment starts

     Waiting for input...
     Reading input from standard input

     Current dimensions of program PWSCF are:
     Max number of different atomic species (ntypx) = 10
     Max number of k-points (npk) =  40000
     Max angular momentum in pseudopotentials (lmaxx) =  4


     G-vector sticks info
     --------------------
     sticks:   dense  smooth     PW     G-vecs:    dense   smooth      PW
     Sum         745     745    223                13323    13323    2229

     Using Slab Decomposition



     bravais-lattice index     =            2
     lattice parameter (alat)  =      10.3404  a.u.
     unit-cell volume          =     276.4093 (a.u.)^3
     number of atoms/cell      =            2
     number of atomic types    =            1
     number of electrons       =         8.00
     number of Kohn-Sham states=            8
     kinetic-energy cutoff     =      50.0000  Ry
     charge density cutoff     =     200.0000  Ry
     scf convergence threshold =      1.0E-07
     mixing beta               =       0.7000
     number of iterations used =            8  plain     mixing
     energy convergence thresh.=      1.0E-04
     force convergence thresh. =      1.0E-03
     press convergence thresh. =      5.0E-01
     Exchange-correlation= PBE
                           (   1   4   3   4   0   0   0)
     nstep                     =           50


     celldm(1)=  10.340405  celldm(2)=   0.000000  celldm(3)=   0.000000
     celldm(4)=   0.000000  celldm(5)=   0.000000  celldm(6)=   0.000000

     crystal axes: (cart. coord. in units of alat)
               a(1) = (  -0.500000   0.000000   0.500000 )  
               a(2) = (   0.000000   0.500000   0.500000 )  
               a(3) = (  -0.500000   0.500000   0.000000 )  

     reciprocal axes: (cart. coord. in units 2 pi/alat)
               b(1) = ( -1.000000 -1.000000  1.000000 )  
               b(2) = (  1.000000  1.000000  1.000000 )  
               b(3) = ( -1.000000  1.000000 -1.000000 )  


     PseudoPot. # 1 for Si read from file:
     ./PSEUDO/Si_ONCV_PBE_sr.upf
     MD5 check sum: e543d271109d17c80368dfa7c482276d
     Pseudo is Norm-conserving + core correction, Zval =  4.0
     Generated using ONCVPSP code by D. R. Hamann
     Using radial grid of 1510 points,  6 beta functions with: 
                l(1) =   0
                l(2) =   0
                l(3) =   1
                l(4) =   1
                l(5) =   2
                l(6) =   2

     atomic species   valence    mass     pseudopotential
     Si                4.00    28.08550     Si( 1.00)

     48 Sym. Ops., with inversion, found (24 have fractional translation)



   Cartesian axes

     site n.     atom                  positions (alat units)
         1        Si     tau(   1) = (   0.0000000   0.0000000   0.0000000  )
         2        Si     tau(   2) = (  -0.2500000   0.2500000   0.2500000  )

     number of k points=    72  Marzari-Vanderbilt smearing, width (Ry)=  0.0200
                       cart. coord. in units 2pi/alat
        k(    1) = (   0.0000000   0.0000000   0.0000000), wk =   0.0011574
        k(    2) = (  -0.0833333   0.0833333  -0.0833333), wk =   0.0092593
        k(    3) = (  -0.1666667   0.1666667  -0.1666667), wk =   0.0092593
        k(    4) = (  -0.2500000   0.2500000  -0.2500000), wk =   0.0092593
        k(    5) = (  -0.3333333   0.3333333  -0.3333333), wk =   0.0092593
        k(    6) = (  -0.4166667   0.4166667  -0.4166667), wk =   0.0092593
        k(    7) = (   0.5000000  -0.5000000   0.5000000), wk =   0.0046296
        k(    8) = (   0.0000000   0.1666667   0.0000000), wk =   0.0069444
        k(    9) = (  -0.0833333   0.2500000  -0.0833333), wk =   0.0277778
        k(   10) = (  -0.1666667   0.3333333  -0.1666667), wk =   0.0277778
        k(   11) = (  -0.2500000   0.4166667  -0.2500000), wk =   0.0277778
        k(   12) = (  -0.3333333   0.5000000  -0.3333333), wk =   0.0277778
        k(   13) = (   0.5833333  -0.4166667   0.5833333), wk =   0.0277778
        k(   14) = (   0.5000000  -0.3333333   0.5000000), wk =   0.0277778
        k(   15) = (   0.4166667  -0.2500000   0.4166667), wk =   0.0277778
        k(   16) = (   0.3333333  -0.1666667   0.3333333), wk =   0.0277778
        k(   17) = (   0.2500000  -0.0833333   0.2500000), wk =   0.0277778
        k(   18) = (   0.1666667  -0.0000000   0.1666667), wk =   0.0138889
        k(   19) = (   0.0000000   0.3333333   0.0000000), wk =   0.0069444
        k(   20) = (  -0.0833333   0.4166667  -0.0833333), wk =   0.0277778
        k(   21) = (  -0.1666667   0.5000000  -0.1666667), wk =   0.0277778
        k(   22) = (  -0.2500000   0.5833333  -0.2500000), wk =   0.0277778
        k(   23) = (   0.6666667  -0.3333333   0.6666667), wk =   0.0277778
        k(   24) = (   0.5833333  -0.2500000   0.5833333), wk =   0.0277778
        k(   25) = (   0.5000000  -0.1666667   0.5000000), wk =   0.0277778
        k(   26) = (   0.4166667  -0.0833333   0.4166667), wk =   0.0277778
        k(   27) = (   0.3333333   0.0000000   0.3333333), wk =   0.0138889
        k(   28) = (   0.0000000   0.5000000   0.0000000), wk =   0.0069444
        k(   29) = (  -0.0833333   0.5833333  -0.0833333), wk =   0.0277778
        k(   30) = (  -0.1666667   0.6666667  -0.1666667), wk =   0.0277778
        k(   31) = (   0.7500000  -0.2500000   0.7500000), wk =   0.0277778
        k(   32) = (   0.6666667  -0.1666667   0.6666667), wk =   0.0277778
        k(   33) = (   0.5833333  -0.0833333   0.5833333), wk =   0.0277778
        k(   34) = (   0.5000000   0.0000000   0.5000000), wk =   0.0138889
        k(   35) = (   0.0000000   0.6666667   0.0000000), wk =   0.0069444
        k(   36) = (  -0.0833333   0.7500000  -0.0833333), wk =   0.0277778
        k(   37) = (   0.8333333  -0.1666667   0.8333333), wk =   0.0277778
        k(   38) = (   0.7500000  -0.0833333   0.7500000), wk =   0.0277778
        k(   39) = (   0.6666667  -0.0000000   0.6666667), wk =   0.0138889
        k(   40) = (   0.0000000   0.8333333   0.0000000), wk =   0.0069444
        k(   41) = (   0.9166667  -0.0833333   0.9166667), wk =   0.0277778
        k(   42) = (   0.8333333   0.0000000   0.8333333), wk =   0.0138889
        k(   43) = (   0.0000000  -1.0000000   0.0000000), wk =   0.0034722
        k(   44) = (  -0.1666667   0.3333333   0.0000000), wk =   0.0277778
        k(   45) = (  -0.2500000   0.4166667  -0.0833333), wk =   0.0555556
        k(   46) = (  -0.3333333   0.5000000  -0.1666667), wk =   0.0555556
        k(   47) = (   0.5833333  -0.4166667   0.7500000), wk =   0.0555556
        k(   48) = (   0.5000000  -0.3333333   0.6666667), wk =   0.0277778
        k(   49) = (  -0.1666667   0.5000000   0.0000000), wk =   0.0277778
        k(   50) = (  -0.2500000   0.5833333  -0.0833333), wk =   0.0555556
        k(   51) = (   0.6666667  -0.3333333   0.8333333), wk =   0.0555556
        k(   52) = (   0.5833333  -0.2500000   0.7500000), wk =   0.0555556
        k(   53) = (   0.5000000  -0.1666667   0.6666667), wk =   0.0555556
        k(   54) = (   0.4166667  -0.0833333   0.5833333), wk =   0.0555556
        k(   55) = (   0.3333333   0.0000000   0.5000000), wk =   0.0277778
        k(   56) = (  -0.1666667   0.6666667  -0.0000000), wk =   0.0277778
        k(   57) = (   0.7500000  -0.2500000   0.9166667), wk =   0.0555556
        k(   58) = (   0.6666667  -0.1666667   0.8333333), wk =   0.0555556
        k(   59) = (   0.5833333  -0.0833333   0.7500000), wk =   0.0555556
        k(   60) = (   0.5000000   0.0000000   0.6666667), wk =   0.0277778
        k(   61) = (   0.8333333  -0.1666667   1.0000000), wk =   0.0277778
        k(   62) = (   0.7500000  -0.0833333   0.9166667), wk =   0.0555556
        k(   63) = (   0.6666667   0.0000000   0.8333333), wk =   0.0277778
        k(   64) = (  -0.1666667  -1.0000000  -0.0000000), wk =   0.0138889
        k(   65) = (   0.6666667  -0.3333333   1.0000000), wk =   0.0277778
        k(   66) = (   0.5833333  -0.2500000   0.9166667), wk =   0.0555556
        k(   67) = (   0.5000000  -0.1666667   0.8333333), wk =   0.0277778
        k(   68) = (   0.6666667  -0.1666667   1.0000000), wk =   0.0277778
        k(   69) = (   0.5833333  -0.0833333   0.9166667), wk =   0.0555556
        k(   70) = (   0.5000000   0.0000000   0.8333333), wk =   0.0277778
        k(   71) = (  -0.3333333  -1.0000000   0.0000000), wk =   0.0138889
        k(   72) = (  -0.5000000  -1.0000000   0.0000000), wk =   0.0069444

     Dense  grid:    13323 G-vectors     FFT dimensions: (  36,  36,  36)

     Estimated max dynamical RAM per process >      27.45 MB

     Initial potential from superposition of free atoms

     starting charge       7.9988, renormalised to       8.0000
     Starting wfcs are    8 randomized atomic wfcs

     total cpu time spent up to now is        1.1 secs

     Self-consistent Calculation

     iteration #  1     ecut=    50.00 Ry     beta= 0.70
     Davidson diagonalization with overlap
     ethr =  1.00E-02,  avg # of iterations =  4.6

     Threshold (ethr) on eigenvalues was too large:
     Diagonalizing with lowered threshold

     Davidson diagonalization with overlap
     ethr =  6.29E-04,  avg # of iterations =  2.0

     total cpu time spent up to now is        4.4 secs

     WARNING: integrated charge=     8.00034002, expected=     8.00000000

     total energy              =     -16.92281012 Ry
     estimated scf accuracy    <       0.05389804 Ry

     iteration #  2     ecut=    50.00 Ry     beta= 0.70
     Davidson diagonalization with overlap
     ethr =  6.74E-04,  avg # of iterations =  1.1

     total cpu time spent up to now is        5.3 secs

     WARNING: integrated charge=     8.00207059, expected=     8.00000000

     total energy              =     -16.92399822 Ry
     estimated scf accuracy    <       0.00219604 Ry

     iteration #  3     ecut=    50.00 Ry     beta= 0.70
     Davidson diagonalization with overlap
     ethr =  2.75E-05,  avg # of iterations =  4.3

     total cpu time spent up to now is        6.5 secs

     WARNING: integrated charge=     8.00259453, expected=     8.00000000

     total energy              =     -16.92399158 Ry
     estimated scf accuracy    <       0.00003695 Ry

     iteration #  4     ecut=    50.00 Ry     beta= 0.70
     Davidson diagonalization with overlap
     ethr =  4.62E-07,  avg # of iterations =  4.1

     total cpu time spent up to now is        7.9 secs

     WARNING: integrated charge=     8.00257677, expected=     8.00000000

     total energy              =     -16.92403258 Ry
     estimated scf accuracy    <       0.00000019 Ry

     iteration #  5     ecut=    50.00 Ry     beta= 0.70
     Davidson diagonalization with overlap
     ethr =  2.42E-09,  avg # of iterations =  3.7

     total cpu time spent up to now is        9.1 secs

     End of self-consistent calculation

          k = 0.0000 0.0000 0.0000 (  1639 PWs)   bands (ev):

    -5.8159   5.9935   5.9935   5.9935   8.5399   8.5399   8.5399   9.0758

          k =-0.0833 0.0833-0.0833 (  1663 PWs)   bands (ev):

    -5.7267   5.1319   5.8528   5.8528   8.5409   8.7467   8.7467   9.7896

          k =-0.1667 0.1667-0.1667 (  1666 PWs)   bands (ev):

    -5.4620   3.6253   5.5516   5.5516   8.2596   9.1757   9.1757  11.2373

          k =-0.2500 0.2500-0.2500 (  1642 PWs)   bands (ev):

    -5.0326   2.1031   5.2468   5.2468   7.9332   9.4750   9.4750  12.7123

          k =-0.3333 0.3333-0.3333 (  1634 PWs)   bands (ev):

    -4.4687   0.7216   5.0090   5.0090   7.6667   9.4910   9.4910  13.7597

          k =-0.4167 0.4167-0.4167 (  1661 PWs)   bands (ev):

    -3.8651  -0.3835   4.8621   4.8621   7.4981   9.3902   9.3902  13.7670

          k = 0.5000-0.5000 0.5000 (  1676 PWs)   bands (ev):

    -3.5426  -0.8746   4.8128   4.8128   7.4409   9.3397   9.3397  13.6923

          k = 0.0000 0.1667 0.0000 (  1663 PWs)   bands (ev):

    -5.6968   5.2788   5.5744   5.5744   8.2721   9.1055   9.1055   9.7408

          k =-0.0833 0.2500-0.0833 (  1655 PWs)   bands (ev):

    -5.4901   4.0645   5.2178   5.3948   8.2912   9.1354   9.6340  10.7290

          k =-0.1667 0.3333-0.1667 (  1642 PWs)   bands (ev):

    -5.1140   2.5874   4.9095   5.0749   8.3863   9.1446  10.0195  11.3440

          k =-0.2500 0.4167-0.2500 (  1645 PWs)   bands (ev):

    -4.5898   1.1773   4.7019   4.7268   8.2195   9.2633  10.0568  11.9246

          k =-0.3333 0.5000-0.3333 (  1645 PWs)   bands (ev):

    -3.9799  -0.0272   4.4354   4.6121   8.0469   9.2512   9.8764  12.9517

          k = 0.5833-0.4167 0.5833 (  1656 PWs)   bands (ev):

    -3.5050  -0.7766   4.2349   4.6408   7.9625   9.2614   9.6852  13.8522

          k = 0.5000-0.3333 0.5000 (  1654 PWs)   bands (ev):

    -3.6215  -0.6042   4.1431   4.7802   7.9858   9.3778   9.5757  13.9599

          k = 0.4167-0.2500 0.4167 (  1647 PWs)   bands (ev):

    -4.1862   0.3446   4.1725   5.0149   8.1158   9.5370   9.5789  13.3827

          k = 0.3333-0.1667 0.3333 (  1639 PWs)   bands (ev):

    -4.7798   1.6328   4.3327   5.3194   8.3402   9.4434   9.7150  12.4030

          k = 0.2500-0.0833 0.2500 (  1647 PWs)   bands (ev):

    -5.2581   3.0651   4.6355   5.6433   8.6243   9.1384   9.4858  11.5840

          k = 0.1667-0.0000 0.1667 (  1659 PWs)   bands (ev):

    -5.5788   4.3985   5.1515   5.8754   8.7855   8.8366   8.9341  10.6195

          k = 0.0000 0.3333 0.0000 (  1647 PWs)   bands (ev):

    -5.3414   3.9306   4.8274   4.8274   7.7013  10.1819  10.2846  10.2846

          k =-0.0833 0.4167-0.0833 (  1649 PWs)   bands (ev):

    -5.0209   2.8667   4.4790   4.4990   7.7207   9.8239  10.6361  10.8407

          k =-0.1667 0.5000-0.1667 (  1651 PWs)   bands (ev):

    -4.5431   1.5852   4.0305   4.2834   7.9568   9.9826  10.4939  11.0182

          k =-0.2500 0.5833-0.2500 (  1647 PWs)   bands (ev):

    -3.9496   0.3782   3.5977   4.1997   8.0004  10.1703  10.8543  11.0134

          k = 0.6667-0.3333 0.6667 (  1653 PWs)   bands (ev):

    -3.3831  -0.5317   3.2599   4.2511   8.0267  10.0439  10.5928  12.3493

          k = 0.5833-0.2500 0.5833 (  1649 PWs)   bands (ev):

    -3.2729  -0.6862   3.0520   4.4303   8.1603  10.0056  10.3706  13.8765

          k = 0.5000-0.1667 0.5000 (  1644 PWs)   bands (ev):

    -3.7567   0.0517   3.0005   4.7185   8.4083  10.0691  10.2004  13.1706

          k = 0.4167-0.0833 0.4167 (  1647 PWs)   bands (ev):

    -4.3656   1.1711   3.1490   5.0786   8.7193   9.9615  10.1303  12.0204

          k = 0.3333 0.0000 0.3333 (  1646 PWs)   bands (ev):

    -4.8859   2.2902   3.6359   5.4351   8.9529   9.5190   9.8000  11.5585

          k = 0.0000 0.5000 0.0000 (  1636 PWs)   bands (ev):

    -4.7555   2.4664   4.1436   4.1436   7.1407   9.1252  11.6710  11.6710

          k =-0.0833 0.5833-0.0833 (  1655 PWs)   bands (ev):

    -4.3279   1.5736   3.6871   3.9013   7.2243   8.7829  11.9414  12.1524

          k =-0.1667 0.6667-0.1667 (  1652 PWs)   bands (ev):

    -3.7654   0.5682   3.0673   3.7953   7.4444   9.2412  11.7971  12.1268

          k = 0.7500-0.2500 0.7500 (  1651 PWs)   bands (ev):

    -3.1576  -0.3336   2.5310   3.8323   7.5327  10.4229  11.6212  11.8629

          k = 0.6667-0.1667 0.6667 (  1645 PWs)   bands (ev):

    -2.8452  -0.7342   2.1763   4.0079   7.7057  11.3958  11.5707  12.0601

          k = 0.5833-0.0833 0.5833 (  1650 PWs)   bands (ev):

    -3.2099  -0.2551   2.0634   4.3059   8.0175  11.2646  11.3627  13.0564

          k = 0.5000 0.0000 0.5000 (  1634 PWs)   bands (ev):

    -3.8161   0.5489   2.3254   4.6892   8.4228  10.7289  11.0741  12.0114

          k = 0.0000 0.6667 0.0000 (  1644 PWs)   bands (ev):

    -3.9498   0.9961   3.6253   3.6253   6.7495   8.0149  13.1513  13.1513

          k =-0.0833 0.7500-0.0833 (  1656 PWs)   bands (ev):

    -3.4263   0.2245   3.1529   3.4850   6.9117   7.8822  13.4569  13.5266

          k = 0.8333-0.1667 0.8333 (  1662 PWs)   bands (ev):

    -2.8122  -0.5287   2.4453   3.4905   7.0885   8.7136  13.3408  13.3597

          k = 0.7500-0.0833 0.7500 (  1652 PWs)   bands (ev):

    -2.3585  -1.0061   1.8825   3.6407   7.2614  10.1377  13.0105  13.1748

          k = 0.6667-0.0000 0.6667 (  1652 PWs)   bands (ev):

    -2.6263  -0.7238   1.6856   3.9230   7.5785  11.7726  12.3843  12.9471

          k = 0.0000 0.8333 0.0000 (  1652 PWs)   bands (ev):

    -2.9413  -0.4278   3.3059   3.3059   6.6027   7.2098  14.6819  14.6819

          k = 0.9167-0.0833 0.9167 (  1655 PWs)   bands (ev):

    -2.3409  -1.1028   2.8881   3.2726   6.8048   7.3644  14.9289  15.0061

          k = 0.8333 0.0000 0.8333 (  1656 PWs)   bands (ev):

    -1.8999  -1.4965   2.2385   3.3872   6.9625   8.5403  14.3820  14.8516

          k = 0.0000-1.0000 0.0000 (  1660 PWs)   bands (ev):

    -1.7554  -1.7554   3.1982   3.1982   6.7452   6.7452  15.8887  15.8887

          k =-0.1667 0.3333 0.0000 (  1641 PWs)   bands (ev):

    -5.2268   3.2658   4.3974   5.2952   8.3207   9.4393  10.1008  10.8548

          k =-0.2500 0.4167-0.0833 (  1649 PWs)   bands (ev):

    -4.7995   2.0475   3.8702   5.0262   8.5888   9.4249  10.5072  10.8736

          k =-0.3333 0.5000-0.1667 (  1648 PWs)   bands (ev):

    -4.2373   0.7738   3.5993   4.7068   8.6072   9.3536  10.5683  11.5052

          k = 0.5833-0.4167 0.7500 (  1649 PWs)   bands (ev):

    -3.6321  -0.2903   3.4698   4.4670   8.5362   9.1972  10.4944  12.6919

          k = 0.5000-0.3333 0.6667 (  1648 PWs)   bands (ev):

    -3.3053  -0.7740   3.4332   4.3780   8.5078   9.1241  10.4515  13.9676

          k =-0.1667 0.5000 0.0000 (  1659 PWs)   bands (ev):

    -4.6475   2.0783   3.7154   4.3970   7.7865   9.5007  10.7493  11.5549

          k =-0.2500 0.5833-0.0833 (  1651 PWs)   bands (ev):

    -4.1265   1.0494   3.1850   4.1168   8.1159   9.7240  10.4918  11.9397

          k = 0.6667-0.3333 0.8333 (  1649 PWs)   bands (ev):

    -3.5164   0.0213   2.8299   3.9126   8.2371  10.1655  10.7520  11.9259

          k = 0.5833-0.2500 0.7500 (  1653 PWs)   bands (ev):

    -3.0350  -0.6642   2.5874   3.8950   8.3603   9.8944  11.8192  12.2045

          k = 0.5000-0.1667 0.6667 (  1652 PWs)   bands (ev):

    -3.1664  -0.4827   2.4740   4.0629   8.5990   9.7129  11.7290  12.6022

          k = 0.4167-0.0833 0.5833 (  1647 PWs)   bands (ev):

    -3.7401   0.3701   2.5527   4.3716   8.9397   9.5767  11.2241  11.7072

          k = 0.3333 0.0000 0.5000 (  1651 PWs)   bands (ev):

    -4.3287   1.3285   2.9642   4.7435   9.1821   9.2925  10.6436  11.2651

          k =-0.1667 0.6667-0.0000 (  1656 PWs)   bands (ev):

    -3.8537   0.8254   3.2156   3.6337   7.4001   8.4893  11.9673  13.1022

          k = 0.7500-0.2500 0.9167 (  1655 PWs)   bands (ev):

    -3.2619   0.0062   2.6419   3.4228   7.7340   9.0034  11.6743  13.4661

          k = 0.6667-0.1667 0.8333 (  1652 PWs)   bands (ev):

    -2.6888  -0.6901   2.1332   3.4301   7.8869  10.2799  11.3818  13.3930

          k = 0.5833-0.0833 0.7500 (  1653 PWs)   bands (ev):

    -2.6218  -0.7574   1.8527   3.6236   8.1365  11.0126  11.9826  12.6303

          k = 0.5000 0.0000 0.6667 (  1651 PWs)   bands (ev):

    -3.1449  -0.1802   1.9385   3.9604   8.5153  10.5963  11.4381  12.7607

          k = 0.8333-0.1667 1.0000 (  1654 PWs)   bands (ev):

    -2.8665  -0.4649   2.9377   3.1311   7.2377   7.7539  13.3269  14.6743

          k = 0.7500-0.0833 0.9167 (  1656 PWs)   bands (ev):

    -2.2528  -1.0958   2.3292   3.0878   7.5293   8.6369  13.0155  14.4546

          k = 0.6667 0.0000 0.8333 (  1649 PWs)   bands (ev):

    -2.1068  -1.2035   1.8458   3.2803   7.7613  10.1452  12.5613  12.9516

          k =-0.1667-1.0000-0.0000 (  1656 PWs)   bands (ev):

    -1.7195  -1.7195   2.9036   2.9036   7.3442   7.3442  14.7667  14.7667

          k = 0.6667-0.3333 1.0000 (  1657 PWs)   bands (ev):

    -3.5749   0.3799   2.5042   3.7495   8.8335   9.7127  10.1578  12.9640

          k = 0.5833-0.2500 0.9167 (  1652 PWs)   bands (ev):

    -2.9665  -0.3733   2.1630   3.4223   9.2108   9.7338  10.6953  13.3897

          k = 0.5000-0.1667 0.8333 (  1652 PWs)   bands (ev):

    -2.6172  -0.7895   2.0700   3.2966   9.3596   9.5004  12.0459  12.4157

          k = 0.6667-0.1667 1.0000 (  1651 PWs)   bands (ev):

    -2.6598  -0.6074   2.3117   2.9188   8.6709   9.0813  11.3045  14.1824

          k = 0.5833-0.0833 0.9167 (  1650 PWs)   bands (ev):

    -2.1510  -1.1035   2.0067   2.7681   9.0124  10.2708  11.0257  12.4057

          k = 0.5000 0.0000 0.8333 (  1649 PWs)   bands (ev):

    -2.3778  -0.8769   1.8849   2.9872   9.3106  10.4419  10.9328  12.1569

          k =-0.3333-1.0000 0.0000 (  1646 PWs)   bands (ev):

    -1.6429  -1.6429   2.4348   2.4348   8.7425   8.7425  12.6681  12.6681

          k =-0.5000-1.0000 0.0000 (  1648 PWs)   bands (ev):

    -1.6017  -1.6017   2.2343   2.2343  10.2670  10.2670  10.9074  10.9074

     the Fermi energy is     6.4202 ev

     WARNING: integrated charge=     8.00255419, expected=     8.00000000

!    total energy              =     -16.92404017 Ry
     estimated scf accuracy    <       0.00000001 Ry
     smearing contrib. (-TS)   =       0.00005169 Ry
     internal energy E=F+TS    =     -16.92409185 Ry

     The total energy is F=E-TS. E is the sum of the following terms:
     one-electron contribution =       4.79115927 Ry
     hartree contribution      =       1.11552630 Ry
     xc contribution           =      -6.16048876 Ry
     ewald contribution        =     -16.67028866 Ry

     convergence has been achieved in   5 iterations

     Forces acting on atoms (cartesian axes, Ry/au):

     atom    1 type  1   force =     0.00000000   -0.00000000    0.00000000
     atom    2 type  1   force =    -0.00000000    0.00000000   -0.00000000

     Total force =     0.000000     Total SCF correction =     0.000000


     Computing stress (Cartesian axis) and pressure

          total   stress  (Ry/bohr**3)                   (kbar)     P=       -0.46
  -0.00000312   0.00000000  -0.00000000           -0.46        0.00       -0.00
   0.00000000  -0.00000312  -0.00000000            0.00       -0.46       -0.00
  -0.00000000   0.00000000  -0.00000312           -0.00        0.00       -0.46


     BFGS Geometry Optimization
     Energy error            =      2.0E-07 Ry
     Gradient error          =      2.6E-33 Ry/Bohr
     Cell gradient error     =      4.6E-01 kbar

     bfgs converged in   1 scf cycles and   0 bfgs steps
     (criteria: energy <  1.0E-04 Ry, force <  1.0E-03 Ry/Bohr, cell <  5.0E-01 kbar)

     End of BFGS Geometry Optimization

     Final enthalpy           =     -16.9240401659 Ry
Begin final coordinates
     new unit-cell volume =    276.40931 a.u.^3 (    40.95963 Ang^3 )
     density =      2.27722 g/cm^3

CELL_PARAMETERS (alat= 10.34040509)
  -0.500000000   0.000000000   0.500000000
   0.000000000   0.500000000   0.500000000
  -0.500000000   0.500000000   0.000000000

ATOMIC_POSITIONS (crystal)
Si               0.0000000000        0.0000000000        0.0000000000
Si               0.2500000000        0.2500000000        0.2500000000
End final coordinates



     Writing config-only to output data dir ./tmp/si.cd-relax.save/ :
     XML data file

     Final scf calculation at the relaxed structure.
     The G-vectors are recalculated for the final unit cell
     Results may differ from those at the preceding step.

     G-vector sticks info
     --------------------
     sticks:   dense  smooth     PW     G-vecs:    dense   smooth      PW
     Sum         745     745    223                13323    13323    2229

     Using Slab Decomposition



     bravais-lattice index     =            2
     lattice parameter (alat)  =      10.3404  a.u.
     unit-cell volume          =     276.4093 (a.u.)^3
     number of atoms/cell      =            2
     number of atomic types    =            1
     number of electrons       =         8.00
     number of Kohn-Sham states=            8
     kinetic-energy cutoff     =      50.0000  Ry
     charge density cutoff     =     200.0000  Ry
     scf convergence threshold =      1.0E-07
     mixing beta               =       0.7000
     number of iterations used =            8  plain     mixing
     press convergence thresh. =      5.0E-01
     Exchange-correlation= PBE
                           (   1   4   3   4   0   0   0)

     celldm(1)=  10.340405  celldm(2)=   0.000000  celldm(3)=   0.000000
     celldm(4)=   0.000000  celldm(5)=   0.000000  celldm(6)=   0.000000

     crystal axes: (cart. coord. in units of alat)
               a(1) = (  -0.500000   0.000000   0.500000 )  
               a(2) = (   0.000000   0.500000   0.500000 )  
               a(3) = (  -0.500000   0.500000   0.000000 )  

     reciprocal axes: (cart. coord. in units 2 pi/alat)
               b(1) = ( -1.000000 -1.000000  1.000000 )  
               b(2) = (  1.000000  1.000000  1.000000 )  
               b(3) = ( -1.000000  1.000000 -1.000000 )  


     PseudoPot. # 1 for Si read from file:
     ./PSEUDO/Si_ONCV_PBE_sr.upf
     MD5 check sum: e543d271109d17c80368dfa7c482276d
     Pseudo is Norm-conserving + core correction, Zval =  4.0
     Generated using ONCVPSP code by D. R. Hamann
     Using radial grid of 1510 points,  6 beta functions with: 
                l(1) =   0
                l(2) =   0
                l(3) =   1
                l(4) =   1
                l(5) =   2
                l(6) =   2

     atomic species   valence    mass     pseudopotential
     Si                4.00    28.08550     Si( 1.00)

     48 Sym. Ops., with inversion, found (24 have fractional translation)



   Cartesian axes

     site n.     atom                  positions (alat units)
         1        Si     tau(   1) = (   0.0000000   0.0000000   0.0000000  )
         2        Si     tau(   2) = (  -0.2500000   0.2500000   0.2500000  )

     number of k points=    72  Marzari-Vanderbilt smearing, width (Ry)=  0.0200
                       cart. coord. in units 2pi/alat
        k(    1) = (   0.0000000   0.0000000   0.0000000), wk =   0.0011574
        k(    2) = (  -0.0833333   0.0833333  -0.0833333), wk =   0.0092593
        k(    3) = (  -0.1666667   0.1666667  -0.1666667), wk =   0.0092593
        k(    4) = (  -0.2500000   0.2500000  -0.2500000), wk =   0.0092593
        k(    5) = (  -0.3333333   0.3333333  -0.3333333), wk =   0.0092593
        k(    6) = (  -0.4166667   0.4166667  -0.4166667), wk =   0.0092593
        k(    7) = (   0.5000000  -0.5000000   0.5000000), wk =   0.0046296
        k(    8) = (   0.0000000   0.1666667   0.0000000), wk =   0.0069444
        k(    9) = (  -0.0833333   0.2500000  -0.0833333), wk =   0.0277778
        k(   10) = (  -0.1666667   0.3333333  -0.1666667), wk =   0.0277778
        k(   11) = (  -0.2500000   0.4166667  -0.2500000), wk =   0.0277778
        k(   12) = (  -0.3333333   0.5000000  -0.3333333), wk =   0.0277778
        k(   13) = (   0.5833333  -0.4166667   0.5833333), wk =   0.0277778
        k(   14) = (   0.5000000  -0.3333333   0.5000000), wk =   0.0277778
        k(   15) = (   0.4166667  -0.2500000   0.4166667), wk =   0.0277778
        k(   16) = (   0.3333333  -0.1666667   0.3333333), wk =   0.0277778
        k(   17) = (   0.2500000  -0.0833333   0.2500000), wk =   0.0277778
        k(   18) = (   0.1666667  -0.0000000   0.1666667), wk =   0.0138889
        k(   19) = (   0.0000000   0.3333333   0.0000000), wk =   0.0069444
        k(   20) = (  -0.0833333   0.4166667  -0.0833333), wk =   0.0277778
        k(   21) = (  -0.1666667   0.5000000  -0.1666667), wk =   0.0277778
        k(   22) = (  -0.2500000   0.5833333  -0.2500000), wk =   0.0277778
        k(   23) = (   0.6666667  -0.3333333   0.6666667), wk =   0.0277778
        k(   24) = (   0.5833333  -0.2500000   0.5833333), wk =   0.0277778
        k(   25) = (   0.5000000  -0.1666667   0.5000000), wk =   0.0277778
        k(   26) = (   0.4166667  -0.0833333   0.4166667), wk =   0.0277778
        k(   27) = (   0.3333333   0.0000000   0.3333333), wk =   0.0138889
        k(   28) = (   0.0000000   0.5000000   0.0000000), wk =   0.0069444
        k(   29) = (  -0.0833333   0.5833333  -0.0833333), wk =   0.0277778
        k(   30) = (  -0.1666667   0.6666667  -0.1666667), wk =   0.0277778
        k(   31) = (   0.7500000  -0.2500000   0.7500000), wk =   0.0277778
        k(   32) = (   0.6666667  -0.1666667   0.6666667), wk =   0.0277778
        k(   33) = (   0.5833333  -0.0833333   0.5833333), wk =   0.0277778
        k(   34) = (   0.5000000   0.0000000   0.5000000), wk =   0.0138889
        k(   35) = (   0.0000000   0.6666667   0.0000000), wk =   0.0069444
        k(   36) = (  -0.0833333   0.7500000  -0.0833333), wk =   0.0277778
        k(   37) = (   0.8333333  -0.1666667   0.8333333), wk =   0.0277778
        k(   38) = (   0.7500000  -0.0833333   0.7500000), wk =   0.0277778
        k(   39) = (   0.6666667  -0.0000000   0.6666667), wk =   0.0138889
        k(   40) = (   0.0000000   0.8333333   0.0000000), wk =   0.0069444
        k(   41) = (   0.9166667  -0.0833333   0.9166667), wk =   0.0277778
        k(   42) = (   0.8333333   0.0000000   0.8333333), wk =   0.0138889
        k(   43) = (   0.0000000  -1.0000000   0.0000000), wk =   0.0034722
        k(   44) = (  -0.1666667   0.3333333   0.0000000), wk =   0.0277778
        k(   45) = (  -0.2500000   0.4166667  -0.0833333), wk =   0.0555556
        k(   46) = (  -0.3333333   0.5000000  -0.1666667), wk =   0.0555556
        k(   47) = (   0.5833333  -0.4166667   0.7500000), wk =   0.0555556
        k(   48) = (   0.5000000  -0.3333333   0.6666667), wk =   0.0277778
        k(   49) = (  -0.1666667   0.5000000   0.0000000), wk =   0.0277778
        k(   50) = (  -0.2500000   0.5833333  -0.0833333), wk =   0.0555556
        k(   51) = (   0.6666667  -0.3333333   0.8333333), wk =   0.0555556
        k(   52) = (   0.5833333  -0.2500000   0.7500000), wk =   0.0555556
        k(   53) = (   0.5000000  -0.1666667   0.6666667), wk =   0.0555556
        k(   54) = (   0.4166667  -0.0833333   0.5833333), wk =   0.0555556
        k(   55) = (   0.3333333   0.0000000   0.5000000), wk =   0.0277778
        k(   56) = (  -0.1666667   0.6666667  -0.0000000), wk =   0.0277778
        k(   57) = (   0.7500000  -0.2500000   0.9166667), wk =   0.0555556
        k(   58) = (   0.6666667  -0.1666667   0.8333333), wk =   0.0555556
        k(   59) = (   0.5833333  -0.0833333   0.7500000), wk =   0.0555556
        k(   60) = (   0.5000000   0.0000000   0.6666667), wk =   0.0277778
        k(   61) = (   0.8333333  -0.1666667   1.0000000), wk =   0.0277778
        k(   62) = (   0.7500000  -0.0833333   0.9166667), wk =   0.0555556
        k(   63) = (   0.6666667   0.0000000   0.8333333), wk =   0.0277778
        k(   64) = (  -0.1666667  -1.0000000  -0.0000000), wk =   0.0138889
        k(   65) = (   0.6666667  -0.3333333   1.0000000), wk =   0.0277778
        k(   66) = (   0.5833333  -0.2500000   0.9166667), wk =   0.0555556
        k(   67) = (   0.5000000  -0.1666667   0.8333333), wk =   0.0277778
        k(   68) = (   0.6666667  -0.1666667   1.0000000), wk =   0.0277778
        k(   69) = (   0.5833333  -0.0833333   0.9166667), wk =   0.0555556
        k(   70) = (   0.5000000   0.0000000   0.8333333), wk =   0.0277778
        k(   71) = (  -0.3333333  -1.0000000   0.0000000), wk =   0.0138889
        k(   72) = (  -0.5000000  -1.0000000   0.0000000), wk =   0.0069444

     Dense  grid:    13323 G-vectors     FFT dimensions: (  36,  36,  36)

     Estimated max dynamical RAM per process >      27.55 MB

     Initial potential from superposition of free atoms

     starting charge       7.9988, renormalised to       8.0000
     Starting wfcs are    8 randomized atomic wfcs

     total cpu time spent up to now is       10.4 secs

     Self-consistent Calculation

     iteration #  1     ecut=    50.00 Ry     beta= 0.70
     Davidson diagonalization with overlap
     c_bands:  1 eigenvalues not converged
     c_bands:  1 eigenvalues not converged
     c_bands:  1 eigenvalues not converged
     c_bands:  1 eigenvalues not converged
     c_bands:  1 eigenvalues not converged
     ethr =  1.00E-06,  avg # of iterations = 15.1

     total cpu time spent up to now is       14.7 secs

     WARNING: integrated charge=     8.00034568, expected=     8.00000000

     total energy              =     -16.92283108 Ry
     estimated scf accuracy    <       0.05504381 Ry

     iteration #  2     ecut=    50.00 Ry     beta= 0.70
     Davidson diagonalization with overlap
     ethr =  6.88E-04,  avg # of iterations =  1.0

     total cpu time spent up to now is       15.6 secs

     WARNING: integrated charge=     8.00209915, expected=     8.00000000

     total energy              =     -16.92397570 Ry
     estimated scf accuracy    <       0.00212660 Ry

     iteration #  3     ecut=    50.00 Ry     beta= 0.70
     Davidson diagonalization with overlap
     ethr =  2.66E-05,  avg # of iterations =  1.3

     total cpu time spent up to now is       16.6 secs

     WARNING: integrated charge=     8.00257895, expected=     8.00000000

     total energy              =     -16.92398976 Ry
     estimated scf accuracy    <       0.00003144 Ry

     iteration #  4     ecut=    50.00 Ry     beta= 0.70
     Davidson diagonalization with overlap
     ethr =  3.93E-07,  avg # of iterations =  2.7

     total cpu time spent up to now is       17.8 secs

     WARNING: integrated charge=     8.00259319, expected=     8.00000000

     total energy              =     -16.92402456 Ry
     estimated scf accuracy    <       0.00000088 Ry

     iteration #  5     ecut=    50.00 Ry     beta= 0.70
     Davidson diagonalization with overlap
     ethr =  1.10E-08,  avg # of iterations =  2.8

     total cpu time spent up to now is       18.9 secs

     End of self-consistent calculation

          k = 0.0000 0.0000 0.0000 (  1639 PWs)   bands (ev):

    -5.8161   5.9932   5.9932   5.9932   8.5398   8.5398   8.5398   9.0756

          k =-0.0833 0.0833-0.0833 (  1663 PWs)   bands (ev):

    -5.7269   5.1317   5.8526   5.8526   8.5408   8.7466   8.7466   9.7894

          k =-0.1667 0.1667-0.1667 (  1666 PWs)   bands (ev):

    -5.4622   3.6251   5.5514   5.5514   8.2594   9.1755   9.1755  11.2371

          k =-0.2500 0.2500-0.2500 (  1642 PWs)   bands (ev):

    -5.0328   2.1029   5.2466   5.2466   7.9330   9.4749   9.4749  12.7121

          k =-0.3333 0.3333-0.3333 (  1634 PWs)   bands (ev):

    -4.4689   0.7214   5.0088   5.0088   7.6665   9.4909   9.4909  13.7595

          k =-0.4167 0.4167-0.4167 (  1661 PWs)   bands (ev):

    -3.8653  -0.3837   4.8619   4.8619   7.4980   9.3900   9.3900  13.7669

          k = 0.5000-0.5000 0.5000 (  1676 PWs)   bands (ev):

    -3.5428  -0.8748   4.8125   4.8125   7.4407   9.3395   9.3395  13.6922

          k = 0.0000 0.1667 0.0000 (  1663 PWs)   bands (ev):

    -5.6970   5.2785   5.5741   5.5741   8.2720   9.1053   9.1053   9.7406

          k =-0.0833 0.2500-0.0833 (  1655 PWs)   bands (ev):

    -5.4903   4.0643   5.2175   5.3946   8.2910   9.1353   9.6338  10.7288

          k =-0.1667 0.3333-0.1667 (  1642 PWs)   bands (ev):

    -5.1142   2.5872   4.9093   5.0747   8.3861   9.1444  10.0194  11.3439

          k =-0.2500 0.4167-0.2500 (  1645 PWs)   bands (ev):

    -4.5900   1.1771   4.7017   4.7265   8.2193   9.2631  10.0567  11.9244

          k =-0.3333 0.5000-0.3333 (  1645 PWs)   bands (ev):

    -3.9801  -0.0274   4.4352   4.6118   8.0467   9.2511   9.8762  12.9516

          k = 0.5833-0.4167 0.5833 (  1656 PWs)   bands (ev):

    -3.5052  -0.7768   4.2347   4.6406   7.9623   9.2612   9.6851  13.8521

          k = 0.5000-0.3333 0.5000 (  1654 PWs)   bands (ev):

    -3.6217  -0.6044   4.1429   4.7800   7.9856   9.3776   9.5755  13.9598

          k = 0.4167-0.2500 0.4167 (  1647 PWs)   bands (ev):

    -4.1864   0.3444   4.1723   5.0147   8.1157   9.5369   9.5788  13.3825

          k = 0.3333-0.1667 0.3333 (  1639 PWs)   bands (ev):

    -4.7800   1.6326   4.3324   5.3192   8.3400   9.4432   9.7149  12.4028

          k = 0.2500-0.0833 0.2500 (  1647 PWs)   bands (ev):

    -5.2583   3.0649   4.6353   5.6430   8.6241   9.1383   9.4856  11.5838

          k = 0.1667-0.0000 0.1667 (  1659 PWs)   bands (ev):

    -5.5790   4.3983   5.1513   5.8752   8.7853   8.8364   8.9340  10.6194

          k = 0.0000 0.3333 0.0000 (  1647 PWs)   bands (ev):

    -5.3416   3.9304   4.8272   4.8272   7.7012  10.1818  10.2844  10.2844

          k =-0.0833 0.4167-0.0833 (  1649 PWs)   bands (ev):

    -5.0211   2.8665   4.4788   4.4988   7.7206   9.8237  10.6360  10.8405

          k =-0.1667 0.5000-0.1667 (  1651 PWs)   bands (ev):

    -4.5433   1.5850   4.0303   4.2832   7.9567   9.9825  10.4938  11.0180

          k =-0.2500 0.5833-0.2500 (  1647 PWs)   bands (ev):

    -3.9498   0.3780   3.5975   4.1995   8.0003  10.1701  10.8541  11.0132

          k = 0.6667-0.3333 0.6667 (  1653 PWs)   bands (ev):

    -3.3833  -0.5319   3.2597   4.2509   8.0265  10.0437  10.5927  12.3491

          k = 0.5833-0.2500 0.5833 (  1649 PWs)   bands (ev):

    -3.2731  -0.6864   3.0518   4.4300   8.1601  10.0055  10.3705  13.8768

          k = 0.5000-0.1667 0.5000 (  1644 PWs)   bands (ev):

    -3.7569   0.0515   3.0003   4.7183   8.4082  10.0689  10.2002  13.1705

          k = 0.4167-0.0833 0.4167 (  1647 PWs)   bands (ev):

    -4.3658   1.1709   3.1488   5.0784   8.7192   9.9614  10.1301  12.0202

          k = 0.3333 0.0000 0.3333 (  1646 PWs)   bands (ev):

    -4.8861   2.2899   3.6357   5.4348   8.9528   9.5189   9.7998  11.5583

          k = 0.0000 0.5000 0.0000 (  1636 PWs)   bands (ev):

    -4.7557   2.4662   4.1434   4.1434   7.1406   9.1251  11.6708  11.6708

          k =-0.0833 0.5833-0.0833 (  1655 PWs)   bands (ev):

    -4.3281   1.5734   3.6869   3.9011   7.2241   8.7828  11.9412  12.1523

          k =-0.1667 0.6667-0.1667 (  1652 PWs)   bands (ev):

    -3.7656   0.5680   3.0671   3.7951   7.4442   9.2411  11.7969  12.1266

          k = 0.7500-0.2500 0.7500 (  1651 PWs)   bands (ev):

    -3.1578  -0.3338   2.5308   3.8321   7.5326  10.4227  11.6211  11.8627

          k = 0.6667-0.1667 0.6667 (  1645 PWs)   bands (ev):

    -2.8454  -0.7344   2.1761   4.0077   7.7056  11.3956  11.5706  12.0599

          k = 0.5833-0.0833 0.5833 (  1650 PWs)   bands (ev):

    -3.2101  -0.2553   2.0633   4.3056   8.0174  11.2645  11.3625  13.0561

          k = 0.5000 0.0000 0.5000 (  1634 PWs)   bands (ev):

    -3.8163   0.5487   2.3253   4.6890   8.4226  10.7288  11.0738  12.0112

          k = 0.0000 0.6667 0.0000 (  1644 PWs)   bands (ev):

    -3.9500   0.9959   3.6251   3.6251   6.7493   8.0147  13.1511  13.1511

          k =-0.0833 0.7500-0.0833 (  1656 PWs)   bands (ev):

    -3.4266   0.2243   3.1527   3.4847   6.9116   7.8820  13.4567  13.5264

          k = 0.8333-0.1667 0.8333 (  1662 PWs)   bands (ev):

    -2.8124  -0.5289   2.4451   3.4903   7.0884   8.7134  13.3406  13.3596

          k = 0.7500-0.0833 0.7500 (  1652 PWs)   bands (ev):

    -2.3587  -1.0063   1.8823   3.6405   7.2613  10.1376  13.0104  13.1747

          k = 0.6667-0.0000 0.6667 (  1652 PWs)   bands (ev):

    -2.6265  -0.7240   1.6854   3.9228   7.5783  11.7724  12.3841  12.9468

          k = 0.0000 0.8333 0.0000 (  1652 PWs)   bands (ev):

    -2.9415  -0.4280   3.3057   3.3057   6.6026   7.2097  14.6818  14.6818

          k = 0.9167-0.0833 0.9167 (  1655 PWs)   bands (ev):

    -2.3411  -1.1030   2.8879   3.2724   6.8047   7.3642  14.9288  15.0059

          k = 0.8333 0.0000 0.8333 (  1656 PWs)   bands (ev):

    -1.9001  -1.4967   2.2384   3.3870   6.9623   8.5402  14.3819  14.8514

          k = 0.0000-1.0000 0.0000 (  1660 PWs)   bands (ev):

    -1.7556  -1.7556   3.1980   3.1980   6.7451   6.7451  15.8885  15.8885

          k =-0.1667 0.3333 0.0000 (  1641 PWs)   bands (ev):

    -5.2270   3.2655   4.3972   5.2950   8.3206   9.4391  10.1006  10.8547

          k =-0.2500 0.4167-0.0833 (  1649 PWs)   bands (ev):

    -4.7997   2.0473   3.8700   5.0260   8.5886   9.4248  10.5071  10.8734

          k =-0.3333 0.5000-0.1667 (  1648 PWs)   bands (ev):

    -4.2375   0.7735   3.5991   4.7066   8.6071   9.3534  10.5681  11.5051

          k = 0.5833-0.4167 0.7500 (  1649 PWs)   bands (ev):

    -3.6323  -0.2905   3.4696   4.4668   8.5360   9.1970  10.4943  12.6918

          k = 0.5000-0.3333 0.6667 (  1648 PWs)   bands (ev):

    -3.3055  -0.7742   3.4330   4.3778   8.5077   9.1239  10.4514  13.9673

          k =-0.1667 0.5000 0.0000 (  1659 PWs)   bands (ev):

    -4.6477   2.0780   3.7152   4.3967   7.7863   9.5005  10.7491  11.5547

          k =-0.2500 0.5833-0.0833 (  1651 PWs)   bands (ev):

    -4.1267   1.0492   3.1848   4.1166   8.1158   9.7239  10.4917  11.9395

          k = 0.6667-0.3333 0.8333 (  1649 PWs)   bands (ev):

    -3.5166   0.0211   2.8297   3.9123   8.2370  10.1653  10.7518  11.9257

          k = 0.5833-0.2500 0.7500 (  1653 PWs)   bands (ev):

    -3.0352  -0.6644   2.5872   3.8948   8.3601   9.8943  11.8190  12.2043

          k = 0.5000-0.1667 0.6667 (  1652 PWs)   bands (ev):

    -3.1666  -0.4829   2.4738   4.0627   8.5988   9.7127  11.7288  12.6020

          k = 0.4167-0.0833 0.5833 (  1647 PWs)   bands (ev):

    -3.7404   0.3699   2.5525   4.3714   8.9395   9.5766  11.2240  11.7071

          k = 0.3333 0.0000 0.5000 (  1651 PWs)   bands (ev):

    -4.3289   1.3283   2.9640   4.7432   9.1820   9.2923  10.6435  11.2649

          k =-0.1667 0.6667-0.0000 (  1656 PWs)   bands (ev):

    -3.8539   0.8252   3.2154   3.6335   7.4000   8.4892  11.9672  13.1020

          k = 0.7500-0.2500 0.9167 (  1655 PWs)   bands (ev):

    -3.2621   0.0060   2.6417   3.4226   7.7339   9.0032  11.6741  13.4659

          k = 0.6667-0.1667 0.8333 (  1652 PWs)   bands (ev):

    -2.6891  -0.6903   2.1330   3.4299   7.8867  10.2797  11.3817  13.3924

          k = 0.5833-0.0833 0.7500 (  1653 PWs)   bands (ev):

    -2.6220  -0.7576   1.8526   3.6234   8.1363  11.0125  11.9825  12.6300

          k = 0.5000 0.0000 0.6667 (  1651 PWs)   bands (ev):

    -3.1451  -0.1804   1.9383   3.9602   8.5152  10.5962  11.4378  12.7605

          k = 0.8333-0.1667 1.0000 (  1654 PWs)   bands (ev):

    -2.8667  -0.4651   2.9375   3.1309   7.2375   7.7538  13.3267  14.6742

          k = 0.7500-0.0833 0.9167 (  1656 PWs)   bands (ev):

    -2.2530  -1.0961   2.3290   3.0876   7.5292   8.6368  13.0154  14.4545

          k = 0.6667 0.0000 0.8333 (  1649 PWs)   bands (ev):

    -2.1071  -1.2037   1.8457   3.2801   7.7611  10.1450  12.5611  12.9515

          k =-0.1667-1.0000-0.0000 (  1656 PWs)   bands (ev):

    -1.7197  -1.7197   2.9034   2.9034   7.3441   7.3441  14.7666  14.7666

          k = 0.6667-0.3333 1.0000 (  1657 PWs)   bands (ev):

    -3.5751   0.3797   2.5040   3.7493   8.8334   9.7125  10.1576  12.9638

          k = 0.5833-0.2500 0.9167 (  1652 PWs)   bands (ev):

    -2.9667  -0.3736   2.1628   3.4221   9.2106   9.7336  10.6952  13.3896

          k = 0.5000-0.1667 0.8333 (  1652 PWs)   bands (ev):

    -2.6174  -0.7897   2.0698   3.2964   9.3594   9.5002  12.0457  12.4155

          k = 0.6667-0.1667 1.0000 (  1651 PWs)   bands (ev):

    -2.6600  -0.6077   2.3115   2.9186   8.6707   9.0811  11.3043  14.1823

          k = 0.5833-0.0833 0.9167 (  1650 PWs)   bands (ev):

    -2.1512  -1.1037   2.0065   2.7679   9.0122  10.2706  11.0255  12.4055

          k = 0.5000 0.0000 0.8333 (  1649 PWs)   bands (ev):

    -2.3780  -0.8772   1.8847   2.9870   9.3104  10.4417  10.9326  12.1568

          k =-0.3333-1.0000 0.0000 (  1646 PWs)   bands (ev):

    -1.6431  -1.6431   2.4347   2.4347   8.7423   8.7423  12.6679  12.6679

          k =-0.5000-1.0000 0.0000 (  1648 PWs)   bands (ev):

    -1.6019  -1.6019   2.2341   2.2341  10.2669  10.2669  10.9073  10.9073

     the Fermi energy is     6.4200 ev

     WARNING: integrated charge=     8.00255284, expected=     8.00000000

!    total energy              =     -16.92404079 Ry
     estimated scf accuracy    <       0.00000004 Ry
     smearing contrib. (-TS)   =       0.00005165 Ry
     internal energy E=F+TS    =     -16.92409244 Ry

     The total energy is F=E-TS. E is the sum of the following terms:
     one-electron contribution =       4.79113522 Ry
     hartree contribution      =       1.11556891 Ry
     xc contribution           =      -6.16050791 Ry
     ewald contribution        =     -16.67028866 Ry

     convergence has been achieved in   5 iterations

     Forces acting on atoms (cartesian axes, Ry/au):

     atom    1 type  1   force =     0.00000000   -0.00000000    0.00000000
     atom    2 type  1   force =    -0.00000000    0.00000000   -0.00000000

     Total force =     0.000000     Total SCF correction =     0.000000


     Computing stress (Cartesian axis) and pressure

          total   stress  (Ry/bohr**3)                   (kbar)     P=       -0.44
  -0.00000296   0.00000000   0.00000000           -0.44        0.00        0.00
   0.00000000  -0.00000296   0.00000000            0.00       -0.44        0.00
   0.00000000   0.00000000  -0.00000296            0.00        0.00       -0.44


     Writing all to output data dir ./tmp/si.cd-relax.save/ :
     XML data file, charge density, pseudopotentials, collected wavefunctions

     init_run     :      1.43s CPU      1.51s WALL (       2 calls)
     electrons    :     15.46s CPU     16.52s WALL (       2 calls)
     forces       :      0.32s CPU      0.34s WALL (       2 calls)
     stress       :      1.37s CPU      1.42s WALL (       2 calls)

     Called by init_run:
     wfcinit      :      1.12s CPU      1.19s WALL (       2 calls)
     potinit      :      0.09s CPU      0.10s WALL (       2 calls)
     hinit0       :      0.18s CPU      0.19s WALL (       2 calls)

     Called by electrons:
     c_bands      :     13.85s CPU     14.77s WALL (      11 calls)
     sum_band     :      1.50s CPU      1.63s WALL (      11 calls)
     v_of_rho     :      0.12s CPU      0.14s WALL (      12 calls)
     mix_rho      :      0.01s CPU      0.01s WALL (      11 calls)

     Called by c_bands:
     init_us_2    :      0.49s CPU      0.54s WALL (    2016 calls)
     cegterg      :     13.00s CPU     13.86s WALL (     792 calls)

     Called by *egterg:
     cdiaghg      :      0.15s CPU      0.17s WALL (    3790 calls)
     h_psi        :     11.88s CPU     12.68s WALL (    4006 calls)
     g_psi        :      0.07s CPU      0.08s WALL (    3070 calls)

     Called by h_psi:
     h_psi:calbec :      1.12s CPU      1.19s WALL (    4006 calls)
     vloc_psi     :      9.62s CPU     10.28s WALL (    4006 calls)
                                        0.00s GPU  (    4006 calls)
     add_vuspsi   :      1.05s CPU      1.13s WALL (    4006 calls)

     General routines
     calbec       :      2.02s CPU      2.15s WALL (    6454 calls)
     fft          :      0.05s CPU      0.06s WALL (     169 calls)
     ffts         :      0.00s CPU      0.00s WALL (      11 calls)
     fftw         :      9.36s CPU     10.33s WALL (   50858 calls)


     PWSCF        :     18.63s CPU     19.86s WALL


   This run was terminated on:  14:37:30  21Dec2025            

=------------------------------------------------------------------------------=
   JOB DONE.
=------------------------------------------------------------------------------=
