
     Program PWSCF v.7.5 starts on  7Jan2026 at 20: 2:21 

     This program is part of the open-source Quantum ESPRESSO suite
     for quantum simulation of materials; please cite
         "P. Giannozzi et al., J. Phys.:Condens. Matter 21 395502 (2009);
         "P. Giannozzi et al., J. Phys.:Condens. Matter 29 465901 (2017);
         "P. Giannozzi et al., J. Chem. Phys. 152 154105 (2020);
          URL http://www.quantum-espresso.org", 
     in publications or presentations arising from this work. More details at
     http://www.quantum-espresso.org/quote

     Serial version
     440 MiB available memory on the printing compute node when the environment starts

     Waiting for input...
     Reading input from standard input

     Current dimensions of program PWSCF are:
     Max number of different atomic species (ntypx) = 10
     Max number of k-points (npk) =  40000
     Max angular momentum in pseudopotentials (lmaxx) =  4
     Message from routine setup:
     using ibrav=0 with symmetry is DISCOURAGED, use correct ibrav instead


     G-vector sticks info
     --------------------
     sticks:   dense  smooth     PW     G-vecs:    dense   smooth      PW
     Sum         821     821    241                19487    19487    3163

     Using Slab Decomposition



     bravais-lattice index     =            0
     lattice parameter (alat)  =       5.3730  a.u.
     unit-cell volume          =     125.6422 (a.u.)^3
     number of atoms/cell      =            2
     number of atomic types    =            2
     number of electrons       =        22.00
     number of Kohn-Sham states=           15
     kinetic-energy cutoff     =     110.0000  Ry
     charge density cutoff     =     440.0000  Ry
     scf convergence threshold =      1.0E-06
     mixing beta               =       0.7000
     number of iterations used =            8  plain     mixing
     Exchange-correlation= PBE
                           (   1   4   3   4   0   0   0)

     celldm(1)=   5.373000  celldm(2)=   0.000000  celldm(3)=   0.000000
     celldm(4)=   0.000000  celldm(5)=   0.000000  celldm(6)=   0.000000

     crystal axes: (cart. coord. in units of alat)
               a(1) = (   0.900000   0.000000   0.000000 )  
               a(2) = (   0.000000   0.900000   0.000000 )  
               a(3) = (   0.000000   0.000000   1.000000 )  

     reciprocal axes: (cart. coord. in units 2 pi/alat)
               b(1) = (  1.111111  0.000000  0.000000 )  
               b(2) = (  0.000000  1.111111  0.000000 )  
               b(3) = (  0.000000  0.000000  1.000000 )  


     PseudoPot. # 1 for Si read from file:
     ./PSEUDO/Si.upf
     MD5 check sum: 02fab3f35e82123ef5bf1cb05d5b1a5e
     Pseudo is Norm-conserving + core correction, Zval =  4.0
     Generated using ONCVPSP code by D. R. Hamann
     Using radial grid of 1510 points,  6 beta functions with: 
                l(1) =   0
                l(2) =   0
                l(3) =   1
                l(4) =   1
                l(5) =   2
                l(6) =   2

     PseudoPot. # 2 for Ni read from file:
     ./PSEUDO/Ni.upf
     MD5 check sum: 2b0a79d100e227970886d6963e34175b
     Pseudo is Norm-conserving + core correction, Zval = 18.0
     Generated using ONCVPSP code by D. R. Hamann
     Using radial grid of 1372 points,  6 beta functions with: 
                l(1) =   0
                l(2) =   0
                l(3) =   1
                l(4) =   1
                l(5) =   2
                l(6) =   2

     atomic species   valence    mass     pseudopotential
     Si                4.00    28.08550     Si( 1.00)
     Ni               18.00    58.69340     Ni( 1.00)

     16 Sym. Ops., with inversion, found



   Cartesian axes

     site n.     atom                  positions (alat units)
         1        Si     tau(   1) = (   0.0000000   0.0000000   0.0000000  )
         2        Ni     tau(   2) = (   0.4500000   0.4500000   0.5000000  )

     number of k points=    40  Methfessel-Paxton smearing, width (Ry)=  0.0400
                       cart. coord. in units 2pi/alat
        k(    1) = (   0.0000000   0.0000000   0.0000000), wk =   0.0058309
        k(    2) = (   0.0000000   0.0000000   0.1428571), wk =   0.0116618
        k(    3) = (   0.0000000   0.0000000   0.2857143), wk =   0.0116618
        k(    4) = (   0.0000000   0.0000000   0.4285714), wk =   0.0116618
        k(    5) = (   0.0000000   0.1587302   0.0000000), wk =   0.0233236
        k(    6) = (   0.0000000   0.1587302   0.1428571), wk =   0.0466472
        k(    7) = (   0.0000000   0.1587302   0.2857143), wk =   0.0466472
        k(    8) = (   0.0000000   0.1587302   0.4285714), wk =   0.0466472
        k(    9) = (   0.0000000   0.3174603   0.0000000), wk =   0.0233236
        k(   10) = (   0.0000000   0.3174603   0.1428571), wk =   0.0466472
        k(   11) = (   0.0000000   0.3174603   0.2857143), wk =   0.0466472
        k(   12) = (   0.0000000   0.3174603   0.4285714), wk =   0.0466472
        k(   13) = (   0.0000000   0.4761905   0.0000000), wk =   0.0233236
        k(   14) = (   0.0000000   0.4761905   0.1428571), wk =   0.0466472
        k(   15) = (   0.0000000   0.4761905   0.2857143), wk =   0.0466472
        k(   16) = (   0.0000000   0.4761905   0.4285714), wk =   0.0466472
        k(   17) = (   0.1587302   0.1587302   0.0000000), wk =   0.0233236
        k(   18) = (   0.1587302   0.1587302   0.1428571), wk =   0.0466472
        k(   19) = (   0.1587302   0.1587302   0.2857143), wk =   0.0466472
        k(   20) = (   0.1587302   0.1587302   0.4285714), wk =   0.0466472
        k(   21) = (   0.1587302   0.3174603   0.0000000), wk =   0.0466472
        k(   22) = (   0.1587302   0.3174603   0.1428571), wk =   0.0932945
        k(   23) = (   0.1587302   0.3174603   0.2857143), wk =   0.0932945
        k(   24) = (   0.1587302   0.3174603   0.4285714), wk =   0.0932945
        k(   25) = (   0.1587302   0.4761905   0.0000000), wk =   0.0466472
        k(   26) = (   0.1587302   0.4761905   0.1428571), wk =   0.0932945
        k(   27) = (   0.1587302   0.4761905   0.2857143), wk =   0.0932945
        k(   28) = (   0.1587302   0.4761905   0.4285714), wk =   0.0932945
        k(   29) = (   0.3174603   0.3174603   0.0000000), wk =   0.0233236
        k(   30) = (   0.3174603   0.3174603   0.1428571), wk =   0.0466472
        k(   31) = (   0.3174603   0.3174603   0.2857143), wk =   0.0466472
        k(   32) = (   0.3174603   0.3174603   0.4285714), wk =   0.0466472
        k(   33) = (   0.3174603   0.4761905   0.0000000), wk =   0.0466472
        k(   34) = (   0.3174603   0.4761905   0.1428571), wk =   0.0932945
        k(   35) = (   0.3174603   0.4761905   0.2857143), wk =   0.0932945
        k(   36) = (   0.3174603   0.4761905   0.4285714), wk =   0.0932945
        k(   37) = (   0.4761905   0.4761905   0.0000000), wk =   0.0233236
        k(   38) = (   0.4761905   0.4761905   0.1428571), wk =   0.0466472
        k(   39) = (   0.4761905   0.4761905   0.2857143), wk =   0.0466472
        k(   40) = (   0.4761905   0.4761905   0.4285714), wk =   0.0466472

     Dense  grid:    19487 G-vectors     FFT dimensions: (  36,  36,  36)

     Estimated max dynamical RAM per process >      41.87 MB

     Initial potential from superposition of free atoms

     starting charge      21.9992, renormalised to      22.0000
     Starting wfcs are   14 randomized atomic wfcs +    1 random wfcs

     total cpu time spent up to now is        1.4 secs

     Self-consistent Calculation

     iteration #  1     ecut=   110.00 Ry     beta= 0.70
     Davidson diagonalization with overlap
     ethr =  1.00E-02,  avg # of iterations =  4.0

     Threshold (ethr) on eigenvalues was too large:
     Diagonalizing with lowered threshold

     Davidson diagonalization with overlap
     ethr =  4.08E-04,  avg # of iterations =  1.3

     total cpu time spent up to now is        4.6 secs

     total energy              =    -343.99148390 Ry
     estimated scf accuracy    <       0.08541633 Ry

     iteration #  2     ecut=   110.00 Ry     beta= 0.70
     Davidson diagonalization with overlap
     ethr =  3.88E-04,  avg # of iterations =  2.5

     total cpu time spent up to now is        6.1 secs

     total energy              =    -343.95548565 Ry
     estimated scf accuracy    <       0.53110152 Ry

     iteration #  3     ecut=   110.00 Ry     beta= 0.70
     Davidson diagonalization with overlap
     ethr =  3.88E-04,  avg # of iterations =  2.2

     total cpu time spent up to now is        7.5 secs

     total energy              =    -344.03738125 Ry
     estimated scf accuracy    <       0.00142648 Ry

     iteration #  4     ecut=   110.00 Ry     beta= 0.70
     Davidson diagonalization with overlap
     ethr =  6.48E-06,  avg # of iterations =  3.3

     total cpu time spent up to now is        9.0 secs

     total energy              =    -344.03762991 Ry
     estimated scf accuracy    <       0.00017103 Ry

     iteration #  5     ecut=   110.00 Ry     beta= 0.70
     Davidson diagonalization with overlap
     ethr =  7.77E-07,  avg # of iterations =  2.2

     total cpu time spent up to now is       10.4 secs

     total energy              =    -344.03766825 Ry
     estimated scf accuracy    <       0.00002163 Ry

     iteration #  6     ecut=   110.00 Ry     beta= 0.70
     Davidson diagonalization with overlap
     ethr =  9.83E-08,  avg # of iterations =  1.4

     total cpu time spent up to now is       11.6 secs

     End of self-consistent calculation

          k = 0.0000 0.0000 0.0000 (  2429 PWs)   bands (ev):

   -83.5636 -44.0069 -43.9259 -43.9259   4.9946  15.4839  15.7321  18.1071
    18.1071  18.5114  21.4916  25.5352  25.5352  27.5330  28.4609

          k = 0.0000 0.0000 0.1429 (  2450 PWs)   bands (ev):

   -83.5633 -44.0128 -43.9255 -43.9255   5.3691  15.0498  15.8330  17.9219
    17.9219  18.5270  20.1286  26.0822  26.0822  28.2797  29.5547

          k = 0.0000 0.0000 0.2857 (  2430 PWs)   bands (ev):

   -83.5625 -44.0259 -43.9246 -43.9246   6.4579  13.3623  16.0718  17.5539
    17.5539  18.5620  18.9699  27.5354  27.5354  27.8423  32.3553

          k = 0.0000 0.0000 0.4286 (  2446 PWs)   bands (ev):

   -83.5618 -44.0365 -43.9238 -43.9238   8.0640  11.0615  16.2772  17.2942
    17.2942  18.5903  18.7765  27.4609  29.5409  29.5410  32.5141

          k = 0.0000 0.1587 0.0000 (  2428 PWs)   bands (ev):

   -83.5621 -44.0053 -43.9439 -43.9244   5.4611  15.5203  15.7478  17.5882
    18.1453  18.2427  22.3845  22.6820  26.1670  27.5435  30.5917

          k = 0.0000 0.1587 0.1429 (  2430 PWs)   bands (ev):

   -83.5617 -44.0111 -43.9434 -43.9240   5.8282  15.2329  15.7619  17.3721
    17.9606  18.2772  20.8080  23.1545  26.6795  29.1984  31.1397

          k = 0.0000 0.1587 0.2857 (  2441 PWs)   bands (ev):

   -83.5609 -44.0241 -43.9424 -43.9231   6.8919  13.6637  16.0312  17.1258
    17.6117  18.3271  19.2988  24.1873  28.0412  29.5109  32.6879

          k = 0.0000 0.1587 0.4286 (  2454 PWs)   bands (ev):

   -83.5603 -44.0345 -43.9415 -43.9223   8.4352  11.4831  16.3495  16.9235
    17.3640  18.3649  18.8300  25.2988  28.8938  29.8525  31.1763

          k = 0.0000 0.3175 0.0000 (  2428 PWs)   bands (ev):

   -83.5586 -44.0015 -43.9842 -43.9210   6.8274  14.4285  16.1132  16.8021
    17.7239  18.2324  20.2612  24.3350  27.3582  27.8154  32.3724

          k = 0.0000 0.3175 0.1429 (  2455 PWs)   bands (ev):

   -83.5582 -44.0072 -43.9836 -43.9206   7.1700  14.6072  15.7251  16.7705
    17.7485  18.0895  20.3753  22.4843  28.2418  28.8568  31.7666

          k = 0.0000 0.3175 0.2857 (  2444 PWs)   bands (ev):

   -83.5574 -44.0199 -43.9823 -43.9197   8.1476  14.3823  15.1155  16.7785
    17.7193  17.8795  19.6679  21.8622  27.3934  29.3297  31.9477

          k = 0.0000 0.3175 0.4286 (  2453 PWs)   bands (ev):

   -83.5568 -44.0300 -43.9812 -43.9189   9.4785  12.6704  15.6450  16.6186
    17.5247  17.9041  18.9154  22.8123  25.2188  30.5414  32.4506

          k = 0.0000 0.4762 0.0000 (  2446 PWs)   bands (ev):

   -83.5557 -44.0164 -43.9986 -43.9183   8.9722  11.8287  16.3334  16.4616
    17.3660  18.3033  19.8032  26.8582  27.1366  29.9279  30.1529

          k = 0.0000 0.4762 0.1429 (  2439 PWs)   bands (ev):

   -83.5554 -44.0157 -44.0041 -43.9179   9.2566  12.1018  16.0389  16.5574
    17.4042  18.1667  19.7565  24.2877  26.9565  30.4234  30.6490

          k = 0.0000 0.4762 0.2857 (  2452 PWs)   bands (ev):

   -83.5546 -44.0165 -44.0142 -43.9169  10.0161  12.8714  15.3709  16.5507
    17.4919  17.8790  19.4693  22.2683  24.3849  30.9231  32.6889

          k = 0.0000 0.4762 0.4286 (  2441 PWs)   bands (ev):

   -83.5540 -44.0264 -44.0130 -43.9162  10.8548  13.8792  14.5812  16.1587
    17.5655  17.6632  18.9428  21.7647  22.5799  31.2345  34.3554

          k = 0.1587 0.1587 0.0000 (  2445 PWs)   bands (ev):

   -83.5605 -44.0036 -43.9428 -43.9418   5.9206  15.6743  15.6948  17.4780
    17.8826  17.9293  22.5696  23.1598  23.9142  28.0693  33.0608

          k = 0.1587 0.1587 0.1429 (  2440 PWs)   bands (ev):

   -83.5602 -44.0093 -43.9423 -43.9413   6.2801  15.3767  15.7889  17.2820
    17.6411  17.9721  21.4301  23.0082  24.3862  30.5000  32.7836

          k = 0.1587 0.1587 0.2857 (  2445 PWs)   bands (ev):

   -83.5594 -44.0222 -43.9412 -43.9404   7.3182  13.9398  16.0324  17.1562
    17.2646  18.0475  19.6863  24.0461  25.4303  31.2695  32.5193

          k = 0.1587 0.1587 0.4286 (  2450 PWs)   bands (ev):

   -83.5587 -44.0325 -43.9403 -43.9396   8.7998  11.8870  16.3419  16.7138
    17.4683  18.1034  18.9290  25.1296  26.8618  29.4941  29.9729

          k = 0.1587 0.3175 0.0000 (  2430 PWs)   bands (ev):

   -83.5570 -43.9999 -43.9824 -43.9387   7.2636  14.6668  16.0923  16.8777
    17.4748  17.8949  20.4264  24.6972  24.9602  28.3435  33.6541

          k = 0.1587 0.3175 0.1429 (  2448 PWs)   bands (ev):

   -83.5567 -44.0055 -43.9818 -43.9382   7.5981  14.8221  15.7714  16.8566
    17.4795  17.7330  20.6741  22.8920  25.1340  30.3514  31.8133

          k = 0.1587 0.3175 0.2857 (  2443 PWs)   bands (ev):

   -83.5559 -44.0180 -43.9805 -43.9372   8.5488  14.5908  15.1801  16.9456
    17.3435  17.7022  20.1972  21.9860  25.9600  28.0335  33.2186

          k = 0.1587 0.3175 0.4286 (  2457 PWs)   bands (ev):

   -83.5552 -44.0281 -43.9795 -43.9364   9.8247  12.9924  15.4690  16.7932
    17.6455  17.7705  19.0892  22.9923  25.6501  26.9841  31.1440

          k = 0.1587 0.4762 0.0000 (  2436 PWs)   bands (ev):

   -83.5542 -44.0144 -43.9969 -43.9358   9.3536  12.1913  16.4433  16.5545
    17.1223  17.9857  19.7856  26.0619  27.3376  28.7146  30.3170

          k = 0.1587 0.4762 0.1429 (  2442 PWs)   bands (ev):

   -83.5538 -44.0137 -44.0024 -43.9353   9.6284  12.4549  15.9481  16.7393
    17.3717  17.8198  19.8060  24.6569  26.7179  27.8223  29.9497

          k = 0.1587 0.4762 0.2857 (  2450 PWs)   bands (ev):

   -83.5531 -44.0147 -44.0123 -43.9343  10.3632  13.1724  15.1962  16.7470
    17.5745  17.7802  19.7065  22.4512  24.7759  27.4157  30.9909

          k = 0.1587 0.4762 0.4286 (  2450 PWs)   bands (ev):

   -83.5524 -44.0246 -44.0111 -43.9335  11.1828  14.0088  14.4501  16.3512
    17.8676  17.9899  19.1018  21.7480  22.7413  28.1119  31.9558

          k = 0.3175 0.3175 0.0000 (  2439 PWs)   bands (ev):

   -83.5535 -43.9961 -43.9790 -43.9775   8.5261  15.0396  15.5143  16.9555
    17.2783  17.3777  20.2326  22.8121  26.4272  28.1388  30.8880

          k = 0.3175 0.3175 0.1429 (  2446 PWs)   bands (ev):

   -83.5532 -44.0016 -43.9784 -43.9769   8.8336  15.1354  15.3885  16.7546
    17.3654  17.3749  20.6811  22.8175  24.2032  29.0392  32.0893

          k = 0.3175 0.3175 0.2857 (  2459 PWs)   bands (ev):

   -83.5524 -44.0140 -43.9771 -43.9758   9.6936  14.7764  15.1263  16.8789
    17.3844  17.5627  21.3386  21.8552  23.3058  28.9206  29.3826

          k = 0.3175 0.3175 0.4286 (  2451 PWs)   bands (ev):

   -83.5518 -44.0239 -43.9761 -43.9749  10.7917  13.7051  14.9346  17.4237
    17.4550  18.0586  19.5293  23.5013  23.5191  26.1749  27.6464

          k = 0.3175 0.4762 0.0000 (  2453 PWs)   bands (ev):

   -83.5507 -44.0098 -43.9932 -43.9749  10.4080  13.2053  16.0665  16.7020
    17.0336  17.3746  19.6514  23.6123  25.8932  28.1199  31.0950

          k = 0.3175 0.4762 0.1429 (  2445 PWs)   bands (ev):

   -83.5504 -44.0092 -43.9986 -43.9744  10.6560  13.4075  15.5017  16.9020
    17.3594  17.5041  19.7999  23.6891  25.7180  26.1623  29.1462

          k = 0.3175 0.4762 0.2857 (  2455 PWs)   bands (ev):

   -83.5496 -44.0107 -44.0079 -43.9732  11.3187  13.8218  14.7864  17.1564
    17.4780  18.2590  20.1486  22.9362  23.8043  25.8662  27.1420

          k = 0.3175 0.4762 0.4286 (  2457 PWs)   bands (ev):

   -83.5490 -44.0205 -44.0068 -43.9723  12.0706  14.0566  14.1855  17.3814
    18.3149  18.7236  19.8765  21.5777  22.9650  24.9394  27.8947

          k = 0.4762 0.4762 0.0000 (  2476 PWs)   bands (ev):

   -83.5480 -44.0063 -44.0060 -43.9902  11.7240  14.3736  15.2241  16.6183
    16.9040  16.9748  19.3995  22.5801  23.5082  28.5616  33.0009

          k = 0.4762 0.4762 0.1429 (  2474 PWs)   bands (ev):

   -83.5476 -44.0058 -44.0055 -43.9955  11.9485  14.3774  14.7901  16.4324
    17.6255  17.6593  19.5040  22.4221  23.4942  26.8674  30.5005

          k = 0.4762 0.4762 0.2857 (  2460 PWs)   bands (ev):

   -83.5469 -44.0075 -44.0045 -44.0042  12.5305  14.1833  14.2117  17.1905
    18.5445  18.6735  20.1338  21.8173  23.0353  25.0558  27.2909

          k = 0.4762 0.4762 0.4286 (  2450 PWs)   bands (ev):

   -83.5462 -44.0172 -44.0035 -44.0032  13.1345  13.8862  13.9398  18.5354
    18.8531  19.6570  20.9441  21.4022  21.7320  24.4541  24.9372

     the Fermi energy is    21.4612 ev

!    total energy              =    -344.03767054 Ry
     estimated scf accuracy    <       0.00000036 Ry
     smearing contrib. (-TS)   =      -0.00027125 Ry
     internal energy E=F+TS    =    -344.03739929 Ry

     The total energy is F=E-TS. E is the sum of the following terms:
     one-electron contribution =    -197.62375998 Ry
     hartree contribution      =     115.29862399 Ry
     xc contribution           =     -46.48163737 Ry
     ewald contribution        =    -215.23062594 Ry

     convergence has been achieved in   6 iterations

     Forces acting on atoms (cartesian axes, Ry/au):

     atom    1 type  1   force =     0.00000000    0.00000000    0.00000000
     atom    2 type  2   force =     0.00000000    0.00000000    0.00000000

     Total force =     0.000000     Total SCF correction =     0.000000


     Computing stress (Cartesian axis) and pressure

          total   stress  (Ry/bohr**3)                   (kbar)     P=      576.94
   0.00381791   0.00000000   0.00000000          561.63        0.00        0.00
   0.00000000   0.00381791   0.00000000            0.00      561.63        0.00
   0.00000000   0.00000000   0.00413010            0.00        0.00      607.56


     Writing all to output data dir ./tmp/SiNi.save/ :
     XML data file, charge density, pseudopotentials, collected wavefunctions

     init_run     :      1.28s CPU      1.33s WALL (       1 calls)
     electrons    :      9.66s CPU     10.16s WALL (       1 calls)
     forces       :      0.22s CPU      0.23s WALL (       1 calls)
     stress       :      0.88s CPU      0.94s WALL (       1 calls)

     Called by init_run:
     wfcinit      :      0.88s CPU      0.92s WALL (       1 calls)
     potinit      :      0.11s CPU      0.12s WALL (       1 calls)
     hinit0       :      0.27s CPU      0.27s WALL (       1 calls)

     Called by electrons:
     c_bands      :      8.60s CPU      9.02s WALL (       7 calls)
     sum_band     :      0.99s CPU      1.06s WALL (       7 calls)
     v_of_rho     :      0.08s CPU      0.09s WALL (       7 calls)
     mix_rho      :      0.01s CPU      0.01s WALL (       7 calls)

     Called by c_bands:
     init_us_2    :      0.31s CPU      0.37s WALL (     680 calls)
     cegterg      :      8.11s CPU      8.49s WALL (     280 calls)

     Called by *egterg:
     cdiaghg      :      0.13s CPU      0.13s WALL (     916 calls)
     h_psi        :      6.58s CPU      6.93s WALL (     996 calls)
     g_psi        :      0.04s CPU      0.05s WALL (     676 calls)

     Called by h_psi:
     h_psi:calbec :      0.86s CPU      0.88s WALL (     996 calls)
     vloc_psi     :      4.85s CPU      5.14s WALL (     996 calls)
                                        0.00s GPU  (     996 calls)
     add_vuspsi   :      0.81s CPU      0.83s WALL (     996 calls)

     General routines
     calbec       :      1.59s CPU      1.63s WALL (    1676 calls)
     fft          :      0.03s CPU      0.03s WALL (      95 calls)
     ffts         :      0.00s CPU      0.00s WALL (       7 calls)
     fftw         :      4.87s CPU      5.22s WALL (   25958 calls)


     PWSCF        :     12.12s CPU     12.76s WALL


   This run was terminated on:  20: 2:33   7Jan2026            

=------------------------------------------------------------------------------=
   JOB DONE.
=------------------------------------------------------------------------------=
