
     Program PWSCF v.7.5 starts on  7Jan2026 at 20: 5: 4 

     This program is part of the open-source Quantum ESPRESSO suite
     for quantum simulation of materials; please cite
         "P. Giannozzi et al., J. Phys.:Condens. Matter 21 395502 (2009);
         "P. Giannozzi et al., J. Phys.:Condens. Matter 29 465901 (2017);
         "P. Giannozzi et al., J. Chem. Phys. 152 154105 (2020);
          URL http://www.quantum-espresso.org", 
     in publications or presentations arising from this work. More details at
     http://www.quantum-espresso.org/quote

     Serial version
     401 MiB available memory on the printing compute node when the environment starts

     Waiting for input...
     Reading input from standard input

     Current dimensions of program PWSCF are:
     Max number of different atomic species (ntypx) = 10
     Max number of k-points (npk) =  40000
     Max angular momentum in pseudopotentials (lmaxx) =  4
     Message from routine setup:
     using ibrav=0 with symmetry is DISCOURAGED, use correct ibrav instead


     G-vector sticks info
     --------------------
     sticks:   dense  smooth     PW     G-vecs:    dense   smooth      PW
     Sum         821     821    241                19495    19495    3163

     Using Slab Decomposition



     bravais-lattice index     =            0
     lattice parameter (alat)  =       5.3733  a.u.
     unit-cell volume          =     125.6635 (a.u.)^3
     number of atoms/cell      =            2
     number of atomic types    =            2
     number of electrons       =        22.00
     number of Kohn-Sham states=           15
     kinetic-energy cutoff     =     110.0000  Ry
     charge density cutoff     =     440.0000  Ry
     scf convergence threshold =      1.0E-06
     mixing beta               =       0.7000
     number of iterations used =            8  plain     mixing
     energy convergence thresh.=      1.0E-04
     force convergence thresh. =      1.0E-03
     press convergence thresh. =      5.0E-01
     Exchange-correlation= PBE
                           (   1   4   3   4   0   0   0)
     nstep                     =           50


     celldm(1)=   5.373304  celldm(2)=   0.000000  celldm(3)=   0.000000
     celldm(4)=   0.000000  celldm(5)=   0.000000  celldm(6)=   0.000000

     crystal axes: (cart. coord. in units of alat)
               a(1) = (   0.900000   0.000000   0.000000 )  
               a(2) = (   0.000000   0.900000   0.000000 )  
               a(3) = (   0.000000   0.000000   1.000000 )  

     reciprocal axes: (cart. coord. in units 2 pi/alat)
               b(1) = (  1.111111  0.000000  0.000000 )  
               b(2) = (  0.000000  1.111111  0.000000 )  
               b(3) = (  0.000000  0.000000  1.000000 )  


     PseudoPot. # 1 for Si read from file:
     ./PSEUDO/Si.upf
     MD5 check sum: 02fab3f35e82123ef5bf1cb05d5b1a5e
     Pseudo is Norm-conserving + core correction, Zval =  4.0
     Generated using ONCVPSP code by D. R. Hamann
     Using radial grid of 1510 points,  6 beta functions with: 
                l(1) =   0
                l(2) =   0
                l(3) =   1
                l(4) =   1
                l(5) =   2
                l(6) =   2

     PseudoPot. # 2 for Ni read from file:
     ./PSEUDO/Ni.upf
     MD5 check sum: 2b0a79d100e227970886d6963e34175b
     Pseudo is Norm-conserving + core correction, Zval = 18.0
     Generated using ONCVPSP code by D. R. Hamann
     Using radial grid of 1372 points,  6 beta functions with: 
                l(1) =   0
                l(2) =   0
                l(3) =   1
                l(4) =   1
                l(5) =   2
                l(6) =   2

     atomic species   valence    mass     pseudopotential
     Si                4.00    28.08550     Si( 1.00)
     Ni               18.00    58.69340     Ni( 1.00)

     16 Sym. Ops., with inversion, found



   Cartesian axes

     site n.     atom                  positions (alat units)
         1        Si     tau(   1) = (   0.0000000   0.0000000   0.0000000  )
         2        Ni     tau(   2) = (   0.4500000   0.4500000   0.5000000  )

     number of k points=    40  Methfessel-Paxton smearing, width (Ry)=  0.0400
                       cart. coord. in units 2pi/alat
        k(    1) = (   0.0000000   0.0000000   0.0000000), wk =   0.0058309
        k(    2) = (   0.0000000   0.0000000   0.1428571), wk =   0.0116618
        k(    3) = (   0.0000000   0.0000000   0.2857143), wk =   0.0116618
        k(    4) = (   0.0000000   0.0000000   0.4285714), wk =   0.0116618
        k(    5) = (   0.0000000   0.1587302   0.0000000), wk =   0.0233236
        k(    6) = (   0.0000000   0.1587302   0.1428571), wk =   0.0466472
        k(    7) = (   0.0000000   0.1587302   0.2857143), wk =   0.0466472
        k(    8) = (   0.0000000   0.1587302   0.4285714), wk =   0.0466472
        k(    9) = (   0.0000000   0.3174603   0.0000000), wk =   0.0233236
        k(   10) = (   0.0000000   0.3174603   0.1428571), wk =   0.0466472
        k(   11) = (   0.0000000   0.3174603   0.2857143), wk =   0.0466472
        k(   12) = (   0.0000000   0.3174603   0.4285714), wk =   0.0466472
        k(   13) = (   0.0000000   0.4761905   0.0000000), wk =   0.0233236
        k(   14) = (   0.0000000   0.4761905   0.1428571), wk =   0.0466472
        k(   15) = (   0.0000000   0.4761905   0.2857143), wk =   0.0466472
        k(   16) = (   0.0000000   0.4761905   0.4285714), wk =   0.0466472
        k(   17) = (   0.1587302   0.1587302   0.0000000), wk =   0.0233236
        k(   18) = (   0.1587302   0.1587302   0.1428571), wk =   0.0466472
        k(   19) = (   0.1587302   0.1587302   0.2857143), wk =   0.0466472
        k(   20) = (   0.1587302   0.1587302   0.4285714), wk =   0.0466472
        k(   21) = (   0.1587302   0.3174603   0.0000000), wk =   0.0466472
        k(   22) = (   0.1587302   0.3174603   0.1428571), wk =   0.0932945
        k(   23) = (   0.1587302   0.3174603   0.2857143), wk =   0.0932945
        k(   24) = (   0.1587302   0.3174603   0.4285714), wk =   0.0932945
        k(   25) = (   0.1587302   0.4761905   0.0000000), wk =   0.0466472
        k(   26) = (   0.1587302   0.4761905   0.1428571), wk =   0.0932945
        k(   27) = (   0.1587302   0.4761905   0.2857143), wk =   0.0932945
        k(   28) = (   0.1587302   0.4761905   0.4285714), wk =   0.0932945
        k(   29) = (   0.3174603   0.3174603   0.0000000), wk =   0.0233236
        k(   30) = (   0.3174603   0.3174603   0.1428571), wk =   0.0466472
        k(   31) = (   0.3174603   0.3174603   0.2857143), wk =   0.0466472
        k(   32) = (   0.3174603   0.3174603   0.4285714), wk =   0.0466472
        k(   33) = (   0.3174603   0.4761905   0.0000000), wk =   0.0466472
        k(   34) = (   0.3174603   0.4761905   0.1428571), wk =   0.0932945
        k(   35) = (   0.3174603   0.4761905   0.2857143), wk =   0.0932945
        k(   36) = (   0.3174603   0.4761905   0.4285714), wk =   0.0932945
        k(   37) = (   0.4761905   0.4761905   0.0000000), wk =   0.0233236
        k(   38) = (   0.4761905   0.4761905   0.1428571), wk =   0.0466472
        k(   39) = (   0.4761905   0.4761905   0.2857143), wk =   0.0466472
        k(   40) = (   0.4761905   0.4761905   0.4285714), wk =   0.0466472

     Dense  grid:    19495 G-vectors     FFT dimensions: (  36,  36,  36)

     Estimated max dynamical RAM per process >      45.25 MB

     Initial potential from superposition of free atoms

     starting charge      21.9992, renormalised to      22.0000
     Starting wfcs are   14 randomized atomic wfcs +    1 random wfcs

     total cpu time spent up to now is        1.8 secs

     Self-consistent Calculation

     iteration #  1     ecut=   110.00 Ry     beta= 0.70
     Davidson diagonalization with overlap
     ethr =  1.00E-02,  avg # of iterations =  3.9

     Threshold (ethr) on eigenvalues was too large:
     Diagonalizing with lowered threshold

     Davidson diagonalization with overlap
     ethr =  4.08E-04,  avg # of iterations =  1.3

     total cpu time spent up to now is        4.8 secs

     total energy              =    -343.99151290 Ry
     estimated scf accuracy    <       0.08549028 Ry

     iteration #  2     ecut=   110.00 Ry     beta= 0.70
     Davidson diagonalization with overlap
     ethr =  3.89E-04,  avg # of iterations =  2.4

     total cpu time spent up to now is        6.3 secs

     total energy              =    -343.95545575 Ry
     estimated scf accuracy    <       0.53195873 Ry

     iteration #  3     ecut=   110.00 Ry     beta= 0.70
     Davidson diagonalization with overlap
     ethr =  3.89E-04,  avg # of iterations =  2.1

     total cpu time spent up to now is        7.7 secs

     total energy              =    -344.03746591 Ry
     estimated scf accuracy    <       0.00142433 Ry

     iteration #  4     ecut=   110.00 Ry     beta= 0.70
     Davidson diagonalization with overlap
     ethr =  6.47E-06,  avg # of iterations =  3.5

     total cpu time spent up to now is        9.1 secs

     total energy              =    -344.03771422 Ry
     estimated scf accuracy    <       0.00017250 Ry

     iteration #  5     ecut=   110.00 Ry     beta= 0.70
     Davidson diagonalization with overlap
     ethr =  7.84E-07,  avg # of iterations =  2.2

     total cpu time spent up to now is       10.5 secs

     total energy              =    -344.03775281 Ry
     estimated scf accuracy    <       0.00002161 Ry

     iteration #  6     ecut=   110.00 Ry     beta= 0.70
     Davidson diagonalization with overlap
     ethr =  9.82E-08,  avg # of iterations =  1.4

     total cpu time spent up to now is       11.7 secs

     End of self-consistent calculation

          k = 0.0000 0.0000 0.0000 (  2437 PWs)   bands (ev):

   -83.5670 -44.0103 -43.9293 -43.9293   4.9923  15.4812  15.7294  18.1037
    18.1037  18.5080  21.4874  25.5305  25.5305  27.5285  28.4566

          k = 0.0000 0.0000 0.1429 (  2450 PWs)   bands (ev):

   -83.5667 -44.0162 -43.9289 -43.9289   5.3667  15.0470  15.8302  17.9186
    17.9186  18.5235  20.1245  26.0774  26.0774  28.2755  29.5501

          k = 0.0000 0.0000 0.2857 (  2430 PWs)   bands (ev):

   -83.5659 -44.0293 -43.9280 -43.9280   6.4554  13.3595  16.0689  17.5505
    17.5505  18.5585  18.9661  27.5304  27.5304  27.8383  32.3503

          k = 0.0000 0.0000 0.4286 (  2446 PWs)   bands (ev):

   -83.5652 -44.0398 -43.9272 -43.9272   8.0612  11.0587  16.2743  17.2910
    17.2910  18.5868  18.7728  27.4571  29.5356  29.5356  32.5089

          k = 0.0000 0.1587 0.0000 (  2428 PWs)   bands (ev):

   -83.5655 -44.0087 -43.9473 -43.9278   5.4587  15.5176  15.7451  17.5849
    18.1419  18.2393  22.3802  22.6777  26.1622  27.5391  30.5868

          k = 0.0000 0.1587 0.1429 (  2430 PWs)   bands (ev):

   -83.5651 -44.0145 -43.9468 -43.9274   5.8258  15.2301  15.7591  17.3688
    17.9572  18.2737  20.8039  23.1500  26.6746  29.1940  31.1348

          k = 0.0000 0.1587 0.2857 (  2441 PWs)   bands (ev):

   -83.5643 -44.0275 -43.9458 -43.9265   6.8893  13.6608  16.0283  17.1226
    17.6083  18.3237  19.2950  24.1828  28.0361  29.5065  32.6825

          k = 0.0000 0.1587 0.4286 (  2454 PWs)   bands (ev):

   -83.5637 -44.0379 -43.9449 -43.9257   8.4324  11.4803  16.3465  16.9203
    17.3607  18.3614  18.8264  25.2944  28.8892  29.8470  31.1712

          k = 0.0000 0.3175 0.0000 (  2428 PWs)   bands (ev):

   -83.5620 -44.0049 -43.9876 -43.9244   6.8249  14.4256  16.1103  16.7990
    17.7206  18.2290  20.2572  24.3305  27.3540  27.8104  32.3670

          k = 0.0000 0.3175 0.1429 (  2455 PWs)   bands (ev):

   -83.5616 -44.0106 -43.9870 -43.9240   7.1674  14.6042  15.7222  16.7674
    17.7452  18.0861  20.3713  22.4799  28.2367  28.8526  31.7613

          k = 0.0000 0.3175 0.2857 (  2444 PWs)   bands (ev):

   -83.5608 -44.0232 -43.9857 -43.9231   8.1449  14.3794  15.1125  16.7754
    17.7160  17.8761  19.6640  21.8577  27.3889  29.3243  31.9426

          k = 0.0000 0.3175 0.4286 (  2453 PWs)   bands (ev):

   -83.5602 -44.0334 -43.9846 -43.9223   9.4757  12.6676  15.6420  16.6156
    17.5214  17.9008  18.9118  22.8078  25.2143  30.5358  32.4456

          k = 0.0000 0.4762 0.0000 (  2446 PWs)   bands (ev):

   -83.5591 -44.0198 -44.0020 -43.9217   8.9694  11.8259  16.3304  16.4586
    17.3628  18.2998  19.7993  26.8535  27.1327  29.9228  30.1476

          k = 0.0000 0.4762 0.1429 (  2439 PWs)   bands (ev):

   -83.5588 -44.0191 -44.0075 -43.9213   9.2538  12.0989  16.0359  16.5544
    17.4010  18.1633  19.7527  24.2832  26.9521  30.4180  30.6442

          k = 0.0000 0.4762 0.2857 (  2452 PWs)   bands (ev):

   -83.5580 -44.0199 -44.0175 -43.9203  10.0133  12.8685  15.3679  16.5476
    17.4887  17.8757  19.4655  22.2639  24.3805  30.9173  32.6839

          k = 0.0000 0.4762 0.4286 (  2441 PWs)   bands (ev):

   -83.5574 -44.0298 -44.0163 -43.9196  10.8519  13.8763  14.5781  16.1557
    17.5623  17.6599  18.9392  21.7602  22.5755  31.2287  34.3501

          k = 0.1587 0.1587 0.0000 (  2445 PWs)   bands (ev):

   -83.5639 -44.0070 -43.9462 -43.9452   5.9181  15.6715  15.6920  17.4747
    17.8793  17.9260  22.5653  23.1554  23.9095  28.0646  33.0558

          k = 0.1587 0.1587 0.1429 (  2440 PWs)   bands (ev):

   -83.5636 -44.0127 -43.9457 -43.9447   6.2777  15.3739  15.7861  17.2787
    17.6378  17.9687  21.4259  23.0039  24.3814  30.4952  32.7789

          k = 0.1587 0.1587 0.2857 (  2445 PWs)   bands (ev):

   -83.5628 -44.0256 -43.9446 -43.9438   7.3156  13.9369  16.0294  17.1530
    17.2613  18.0441  19.6824  24.0417  25.4253  31.2649  32.5139

          k = 0.1587 0.1587 0.4286 (  2450 PWs)   bands (ev):

   -83.5621 -44.0359 -43.9437 -43.9430   8.7970  11.8842  16.3389  16.7107
    17.4650  18.1000  18.9253  25.1253  26.8565  29.4894  29.9678

          k = 0.1587 0.3175 0.0000 (  2430 PWs)   bands (ev):

   -83.5604 -44.0033 -43.9857 -43.9421   7.2610  14.6639  16.0894  16.8746
    17.4716  17.8916  20.4224  24.6926  24.9556  28.3388  33.6486

          k = 0.1587 0.3175 0.1429 (  2449 PWs)   bands (ev):

   -83.5601 -44.0089 -43.9852 -43.9416   7.5955  14.8192  15.7685  16.8534
    17.4762  17.7297  20.6700  22.8875  25.1292  30.3468  31.8079

          k = 0.1587 0.3175 0.2857 (  2444 PWs)   bands (ev):

   -83.5593 -44.0214 -43.9839 -43.9406   8.5461  14.5879  15.1772  16.9425
    17.3403  17.6989  20.1933  21.9815  25.9551  28.0287  33.2133

          k = 0.1587 0.3175 0.4286 (  2457 PWs)   bands (ev):

   -83.5586 -44.0315 -43.9829 -43.9398   9.8218  12.9895  15.4660  16.7901
    17.6422  17.7672  19.0855  22.9877  25.6455  26.9789  31.1389

          k = 0.1587 0.4762 0.0000 (  2440 PWs)   bands (ev):

   -83.5576 -44.0177 -44.0003 -43.9392   9.3508  12.1885  16.4402  16.5515
    17.1191  17.9824  19.7818  26.0574  27.3327  28.7099  30.3119

          k = 0.1587 0.4762 0.1429 (  2442 PWs)   bands (ev):

   -83.5573 -44.0171 -44.0058 -43.9387   9.6255  12.4520  15.9451  16.7363
    17.3684  17.8165  19.8022  24.6524  26.7130  27.8175  29.9449

          k = 0.1587 0.4762 0.2857 (  2451 PWs)   bands (ev):

   -83.5565 -44.0181 -44.0156 -43.9377  10.3603  13.1695  15.1933  16.7439
    17.5713  17.7769  19.7027  22.4467  24.7714  27.4106  30.9859

          k = 0.1587 0.4762 0.4286 (  2450 PWs)   bands (ev):

   -83.5559 -44.0279 -44.0144 -43.9369  11.1799  14.0059  14.4471  16.3482
    17.8643  17.9866  19.0981  21.7435  22.7369  28.1067  31.9508

          k = 0.3175 0.3175 0.0000 (  2439 PWs)   bands (ev):

   -83.5569 -43.9996 -43.9824 -43.9808   8.5235  15.0367  15.5113  16.9523
    17.2751  17.3745  20.2286  22.8075  26.4223  28.1344  30.8826

          k = 0.3175 0.3175 0.1429 (  2446 PWs)   bands (ev):

   -83.5566 -44.0050 -43.9818 -43.9803   8.8309  15.1325  15.3856  16.7515
    17.3623  17.3717  20.6771  22.8130  24.1984  29.0345  32.0839

          k = 0.3175 0.3175 0.2857 (  2459 PWs)   bands (ev):

   -83.5558 -44.0174 -43.9805 -43.9792   9.6908  14.7735  15.1234  16.8757
    17.3812  17.5594  21.3345  21.8510  23.3008  28.9158  29.3776

          k = 0.3175 0.3175 0.4286 (  2451 PWs)   bands (ev):

   -83.5552 -44.0272 -43.9795 -43.9783  10.7889  13.7023  14.9318  17.4205
    17.4518  18.0552  19.5255  23.4969  23.5140  26.1704  27.6415

          k = 0.3175 0.4762 0.0000 (  2453 PWs)   bands (ev):

   -83.5542 -44.0132 -43.9966 -43.9783  10.4051  13.2024  16.0634  16.6990
    17.0305  17.3714  19.6476  23.6076  25.8887  28.1147  31.0898

          k = 0.3175 0.4762 0.1429 (  2445 PWs)   bands (ev):

   -83.5538 -44.0126 -44.0020 -43.9778  10.6531  13.4046  15.4988  16.8989
    17.3562  17.5008  19.7961  23.6843  25.7131  26.1577  29.1412

          k = 0.3175 0.4762 0.2857 (  2456 PWs)   bands (ev):

   -83.5530 -44.0141 -44.0112 -43.9766  11.3158  13.8189  14.7836  17.1532
    17.4748  18.2556  20.1447  22.9315  23.7996  25.8617  27.1372

          k = 0.3175 0.4762 0.4286 (  2457 PWs)   bands (ev):

   -83.5524 -44.0238 -44.0102 -43.9757  12.0678  14.0538  14.1828  17.3782
    18.3115  18.7200  19.8728  21.5730  22.9607  24.9345  27.8903

          k = 0.4762 0.4762 0.0000 (  2476 PWs)   bands (ev):

   -83.5514 -44.0097 -44.0094 -43.9936  11.7211  14.3707  15.2209  16.6152
    16.9009  16.9717  19.3957  22.5753  23.5036  28.5562  32.9956

          k = 0.4762 0.4762 0.1429 (  2474 PWs)   bands (ev):

   -83.5511 -44.0091 -44.0088 -43.9989  11.9456  14.3745  14.7871  16.4294
    17.6222  17.6560  19.5002  22.4174  23.4897  26.8624  30.4954

          k = 0.4762 0.4762 0.2857 (  2460 PWs)   bands (ev):

   -83.5503 -44.0109 -44.0078 -44.0076  12.5276  14.1806  14.2089  17.1873
    18.5411  18.6699  20.1300  21.8123  23.0311  25.0511  27.2861

          k = 0.4762 0.4762 0.4286 (  2450 PWs)   bands (ev):

   -83.5497 -44.0205 -44.0068 -44.0066  13.1317  13.8835  13.9372  18.5319
    18.8496  19.6533  20.9390  21.3984  21.7281  24.4495  24.9326

     the Fermi energy is    21.4568 ev

!    total energy              =    -344.03775508 Ry
     estimated scf accuracy    <       0.00000037 Ry
     smearing contrib. (-TS)   =      -0.00027132 Ry
     internal energy E=F+TS    =    -344.03748377 Ry

     The total energy is F=E-TS. E is the sum of the following terms:
     one-electron contribution =    -197.64312163 Ry
     hartree contribution      =     115.30542710 Ry
     xc contribution           =     -46.48132619 Ry
     ewald contribution        =    -215.21846304 Ry

     convergence has been achieved in   6 iterations

     Forces acting on atoms (cartesian axes, Ry/au):

     atom    1 type  1   force =     0.00000000    0.00000000    0.00000000
     atom    2 type  2   force =     0.00000000    0.00000000    0.00000000

     Total force =     0.000000     Total SCF correction =     0.000000


     Computing stress (Cartesian axis) and pressure

          total   stress  (Ry/bohr**3)                   (kbar)     P=      576.21
   0.00381299   0.00000000   0.00000000          560.91        0.00        0.00
   0.00000000   0.00381299   0.00000000            0.00      560.91        0.00
   0.00000000   0.00000000   0.00412493            0.00        0.00      606.80


     BFGS Geometry Optimization
     Energy error            =      5.1E-02 Ry
     Gradient error          =      0.0E+00 Ry/Bohr
     Cell gradient error     =      6.1E+02 kbar

     number of scf cycles    =   1
     number of bfgs steps    =   0

     enthalpy           new  =    -344.0377550815 Ry

     new trust radius        =       0.2312017854 bohr
     new conv_thr            =       0.0000010000 Ry

     new unit-cell volume =    138.62233 a.u.^3 (    20.54171 Ang^3 )
     density =      7.01498 g/cm^3

CELL_PARAMETERS (alat=  5.37330365)
   0.900000000   0.000000000   0.000000000
   0.000000000   0.900000000   0.000000000
   0.000000000   0.000000000   1.103123253

ATOMIC_POSITIONS (crystal)
Si               0.0000000000        0.0000000000        0.0000000000
Ni               0.5000000000        0.5000000000        0.5000000000



     Writing config-only to output data dir ./tmp/SiNi-relax.save/ :
     XML data file
     NEW-OLD atomic charge density approx. for the potential
     New effective cutoffs (rho, wfc):  438.90  109.93

     total cpu time spent up to now is       12.8 secs

     Self-consistent Calculation

     iteration #  1     ecut=   110.00 Ry     beta= 0.70
     Davidson diagonalization with overlap
     ethr =  1.00E-06,  avg # of iterations =  9.6

     total cpu time spent up to now is       16.7 secs

     total energy              =    -344.06997255 Ry
     estimated scf accuracy    <       0.00599563 Ry

     iteration #  2     ecut=   110.00 Ry     beta= 0.70
     Davidson diagonalization with overlap
     ethr =  2.73E-05,  avg # of iterations =  2.8

     total cpu time spent up to now is       18.3 secs

     total energy              =    -344.06647453 Ry
     estimated scf accuracy    <       0.05458757 Ry

     iteration #  3     ecut=   110.00 Ry     beta= 0.70
     Davidson diagonalization with overlap
     ethr =  2.73E-05,  avg # of iterations =  2.2

     total cpu time spent up to now is       19.9 secs

     total energy              =    -344.07375469 Ry
     estimated scf accuracy    <       0.00002226 Ry

     iteration #  4     ecut=   110.00 Ry     beta= 0.70
     Davidson diagonalization with overlap
     ethr =  1.01E-07,  avg # of iterations =  3.9

     total cpu time spent up to now is       21.7 secs

     total energy              =    -344.07377104 Ry
     estimated scf accuracy    <       0.00002166 Ry

     iteration #  5     ecut=   110.00 Ry     beta= 0.70
     Davidson diagonalization with overlap
     ethr =  9.85E-08,  avg # of iterations =  1.0

     total cpu time spent up to now is       22.8 secs

     total energy              =    -344.07377092 Ry
     estimated scf accuracy    <       0.00000356 Ry

     iteration #  6     ecut=   110.00 Ry     beta= 0.70
     Davidson diagonalization with overlap
     ethr =  1.62E-08,  avg # of iterations =  2.0

     total cpu time spent up to now is       24.2 secs

     End of self-consistent calculation

          k = 0.0000 0.0000 0.0000 (  2437 PWs)   bands (ev):

   -85.4751 -45.9486 -45.8001 -45.8001   3.6674  13.7680  14.2396  16.2112
    16.2112  16.8222  17.2710  23.7029  24.1962  24.1962  26.2244

          k = 0.0000 0.0000 0.1295 (  2450 PWs)   bands (ev):

   -85.4751 -45.9504 -45.8000 -45.8000   3.9636  13.0854  14.2985  16.1080
    16.1080  16.6267  16.8287  24.6108  24.6108  25.4195  26.0806

          k = 0.0000 0.0000 0.2590 (  2430 PWs)   bands (ev):

   -85.4749 -45.9543 -45.7997 -45.7997   4.8131  11.1898  14.4356  15.8935
    15.8935  16.2244  16.8434  25.7337  25.7337  25.7472  28.5070

          k = 0.0000 0.0000 0.3885 (  2446 PWs)   bands (ev):

   -85.4747 -45.9576 -45.7995 -45.7995   5.9661   9.2603  14.5506  15.7357
    15.7357  16.2054  16.8552  25.4702  27.1841  27.1841  30.6211

          k = 0.0000 0.1587 0.0000 (  2428 PWs)   bands (ev):

   -85.4736 -45.9469 -45.8173 -45.7986   4.1303  13.9214  14.2314  15.3870
    16.2494  16.6012  18.4520  20.9261  23.7988  24.7552  28.3507

          k = 0.0000 0.1587 0.1295 (  2430 PWs)   bands (ev):

   -85.4735 -45.9487 -45.8172 -45.7985   4.4201  13.3084  14.2783  15.3312
    16.1506  16.6150  17.5513  21.2485  25.1411  25.6000  28.3370

          k = 0.0000 0.1587 0.2590 (  2441 PWs)   bands (ev):

   -85.4734 -45.9526 -45.8169 -45.7983   5.2477  11.5358  14.4588  15.3364
    15.9479  16.6404  16.6514  22.0249  26.1794  27.4751  29.2404

          k = 0.0000 0.1587 0.3885 (  2454 PWs)   bands (ev):

   -85.4732 -45.9558 -45.8167 -45.7981   6.3522   9.7078  14.6488  15.3253
    15.7989  16.2975  16.6587  22.8169  27.0659  27.4593  28.6659

          k = 0.0000 0.3175 0.0000 (  2428 PWs)   bands (ev):

   -85.4702 -45.9432 -45.8559 -45.7955   5.4908  13.1509  14.4539  14.5483
    16.1608  16.3362  18.2879  20.4111  23.9793  26.2583  29.6140

          k = 0.0000 0.3175 0.1295 (  2455 PWs)   bands (ev):

   -85.4701 -45.9449 -45.8558 -45.7953   5.7595  13.2742  13.7632  14.8257
    16.1647  16.2680  18.2288  19.2181  25.7684  26.5669  27.7794

          k = 0.0000 0.3175 0.2590 (  2444 PWs)   bands (ev):

   -85.4700 -45.9487 -45.8554 -45.7951   6.5137  12.4005  13.6348  14.9412
    16.0661  16.2307  17.1085  19.3817  24.7580  27.3582  29.0708

          k = 0.0000 0.3175 0.3885 (  2453 PWs)   bands (ev):

   -85.4698 -45.9517 -45.8551 -45.7949   7.4611  10.9706  14.0091  14.8733
    15.9435  16.2518  16.4588  20.1272  23.0494  28.1878  29.9000

          k = 0.0000 0.4762 0.0000 (  2446 PWs)   bands (ev):

   -85.4675 -45.9403 -45.8868 -45.7929   7.6460  10.5186  14.1002  14.7830
    15.8488  16.4068  17.8986  22.8529  24.1868  25.9184  28.4279

          k = 0.0000 0.4762 0.1295 (  2439 PWs)   bands (ev):

   -85.4674 -45.9419 -45.8866 -45.7928   7.8644  10.7200  13.9428  14.8017
    15.8686  16.3362  17.7927  20.9263  23.5902  27.2342  28.5859

          k = 0.0000 0.4762 0.2590 (  2452 PWs)   bands (ev):

   -85.4672 -45.9455 -45.8862 -45.7925   8.4352  11.2851  13.5056  14.7450
    15.9137  16.1832  17.2674  19.3730  21.5018  28.8892  29.8973

          k = 0.0000 0.4762 0.3885 (  2441 PWs)   bands (ev):

   -85.4671 -45.9484 -45.8858 -45.7923   9.0241  12.0573  12.8729  14.4614
    15.9515  16.0647  16.5973  19.0231  20.1822  29.0833  31.5683

          k = 0.1587 0.1587 0.0000 (  2445 PWs)   bands (ev):

   -85.4721 -45.9453 -45.8162 -45.8154   4.5875  14.0585  14.2794  15.2108
    15.9682  16.3407  19.2977  20.6894  22.2797  24.0999  31.3413

          k = 0.1587 0.1587 0.1295 (  2440 PWs)   bands (ev):

   -85.4720 -45.9470 -45.8161 -45.8153   4.8709  13.4959  14.3431  15.2168
    15.8049  16.3587  18.2152  21.0185  22.6016  26.0959  30.8503

          k = 0.1587 0.1587 0.2590 (  2445 PWs)   bands (ev):

   -85.4719 -45.9509 -45.8158 -45.8150   5.6767  11.8602  14.5152  15.4262
    15.4510  16.3926  17.0796  21.8141  23.3799  29.0894  29.6116

          k = 0.1587 0.1587 0.3885 (  2450 PWs)   bands (ev):

   -85.4717 -45.9540 -45.8156 -45.8148   6.7344  10.1381  14.7504  15.1009
    15.7547  16.3694  16.5048  22.6048  24.3323  27.6001  27.9114

          k = 0.1587 0.3175 0.0000 (  2430 PWs)   bands (ev):

   -85.4687 -45.9416 -45.8542 -45.8124   5.9295  13.3777  14.5311  14.6436
    15.9434  15.9524  18.4234  21.0596  22.9048  24.6151  29.8280

          k = 0.1587 0.3175 0.1295 (  2449 PWs)   bands (ev):

   -85.4686 -45.9433 -45.8541 -45.8123   6.1916  13.4850  13.8897  14.9425
    15.7897  16.0003  18.5795  19.5938  23.2067  26.7091  27.9738

          k = 0.1587 0.3175 0.2590 (  2444 PWs)   bands (ev):

   -85.4685 -45.9470 -45.8537 -45.8120   6.9239  12.6537  13.7383  15.1360
    15.6229  16.0589  17.6288  19.5256  23.8099  25.3013  30.1502

          k = 0.1587 0.3175 0.3885 (  2457 PWs)   bands (ev):

   -85.4683 -45.9500 -45.8534 -45.8118   7.8314  11.3250  13.9426  15.0758
    15.8989  16.1008  16.6602  20.3113  23.4868  24.4683  29.1409

          k = 0.1587 0.4762 0.0000 (  2440 PWs)   bands (ev):

   -85.4660 -45.9386 -45.8850 -45.8097   8.0413  10.8841  14.2451  14.9462
    15.6104  16.0478  17.8741  23.3672  24.0075  25.9415  26.2818

          k = 0.1587 0.4762 0.1295 (  2442 PWs)   bands (ev):

   -85.4659 -45.9403 -45.8848 -45.8096   8.2526  11.0786  13.9798  15.0246
    15.7466  15.9588  17.8490  21.3547  24.1013  24.8922  27.6325

          k = 0.1587 0.4762 0.2590 (  2451 PWs)   bands (ev):

   -85.4658 -45.9439 -45.8844 -45.8093   8.8053  11.6055  13.4426  14.9924
    15.8169  16.0833  17.5816  19.5313  21.8846  25.2394  28.8034

          k = 0.1587 0.4762 0.3885 (  2450 PWs)   bands (ev):

   -85.4656 -45.9467 -45.8840 -45.8091   9.3800  12.2403  12.8751  14.6908
    16.0714  16.3061  16.8033  19.0207  20.3780  25.6779  29.5125

          k = 0.3175 0.3175 0.0000 (  2439 PWs)   bands (ev):

   -85.4653 -45.9379 -45.8511 -45.8498   7.2074  13.7058  14.2148  14.7645
    15.4194  15.7584  18.2226  20.8067  22.5015  25.1605  27.9617

          k = 0.3175 0.3175 0.1295 (  2446 PWs)   bands (ev):

   -85.4653 -45.9395 -45.8509 -45.8496   7.4473  13.6680  14.0361  14.7009
    15.4985  15.8159  18.5942  20.6044  20.9287  26.6959  28.4727

          k = 0.3175 0.3175 0.2590 (  2459 PWs)   bands (ev):

   -85.4651 -45.9432 -45.8505 -45.8493   8.1069  13.0696  13.7242  15.0558
    15.6132  15.9246  18.5923  19.5878  20.9061  26.1845  26.6989

          k = 0.3175 0.3175 0.3885 (  2451 PWs)   bands (ev):

   -85.4650 -45.9461 -45.8503 -45.8491   8.8873  12.1530  13.5231  15.6774
    15.8084  16.0942  17.0981  20.8671  20.9322  24.0022  25.5037

          k = 0.3175 0.4762 0.0000 (  2453 PWs)   bands (ev):

   -85.4626 -45.9350 -45.8808 -45.8474   9.1546  11.8969  14.5923  14.6742
    15.3910  15.5239  17.7347  21.5604  24.0117  24.1821  27.2182

          k = 0.3175 0.4762 0.1295 (  2445 PWs)   bands (ev):

   -85.4626 -45.9366 -45.8806 -45.8472   9.3447  12.0404  13.8805  15.1276
    15.5454  15.7556  17.8396  21.5422  22.3401  24.1969  25.5945

          k = 0.3175 0.4762 0.2590 (  2456 PWs)   bands (ev):

   -85.4624 -45.9401 -45.8803 -45.8469   9.8422  12.3328  13.2384  15.3205
    15.7613  16.4455  18.0612  20.0148  21.4559  23.1229  24.7889

          k = 0.3175 0.4762 0.3885 (  2457 PWs)   bands (ev):

   -85.4623 -45.9429 -45.8800 -45.8467  10.3667  12.5029  12.7760  15.6926
    16.2390  16.9198  17.6233  18.9223  20.7706  22.2520  25.3141

          k = 0.4762 0.4762 0.0000 (  2476 PWs)   bands (ev):

   -85.4600 -45.9321 -45.8776 -45.8773  10.6228  13.0189  13.8795  14.8740
    14.9802  15.1889  17.5301  20.2939  21.5486  24.6287  29.0189

          k = 0.4762 0.4762 0.1295 (  2474 PWs)   bands (ev):

   -85.4599 -45.9336 -45.8774 -45.8772  10.7928  12.9736  13.3621  14.7381
    15.7232  15.8595  17.6052  20.0165  21.4491  23.6237  26.9090

          k = 0.4762 0.4762 0.2590 (  2460 PWs)   bands (ev):

   -85.4597 -45.9371 -45.8771 -45.8769  11.2216  12.7671  12.7803  15.3531
    16.7140  16.8033  18.1036  19.1920  20.7590  22.4867  24.3157

          k = 0.4762 0.4762 0.3885 (  2450 PWs)   bands (ev):

   -85.4596 -45.9399 -45.8768 -45.8766  11.6245  12.4698  12.6054  16.4224
    17.0475  17.6331  18.3847  19.2160  19.6060  21.7419  22.2363

     the Fermi energy is    18.8080 ev

!    total energy              =    -344.07377155 Ry
     estimated scf accuracy    <       0.00000002 Ry
     smearing contrib. (-TS)   =       0.00097132 Ry
     internal energy E=F+TS    =    -344.07474287 Ry

     The total energy is F=E-TS. E is the sum of the following terms:
     one-electron contribution =    -211.05878705 Ry
     hartree contribution      =     120.44207885 Ry
     xc contribution           =     -46.31278752 Ry
     ewald contribution        =    -207.14524715 Ry

     convergence has been achieved in   6 iterations

     Forces acting on atoms (cartesian axes, Ry/au):

     atom    1 type  1   force =     0.00000000    0.00000000    0.00000000
     atom    2 type  2   force =     0.00000000    0.00000000    0.00000000

     Total force =     0.000000     Total SCF correction =     0.000000


     Computing stress (Cartesian axis) and pressure

          total   stress  (Ry/bohr**3)                   (kbar)     P=      233.01
   0.00160634   0.00000000   0.00000000          236.30        0.00        0.00
   0.00000000   0.00160634   0.00000000            0.00      236.30        0.00
   0.00000000   0.00000000   0.00153928            0.00        0.00      226.44

     Energy error            =      3.6E-02 Ry
     Gradient error          =      0.0E+00 Ry/Bohr
     Cell gradient error     =      2.3E+02 kbar

     number of scf cycles    =   2
     number of bfgs steps    =   1

     enthalpy           old  =    -344.0377550815 Ry
     enthalpy           new  =    -344.0737715469 Ry

     CASE: enthalpy          _new < enthalpy          _old

     new trust radius        =       0.1310474743 bohr
     new conv_thr            =       0.0000000100 Ry

     new unit-cell volume =    146.33697 a.u.^3 (    21.68490 Ang^3 )
     density =      6.64517 g/cm^3

CELL_PARAMETERS (alat=  5.37330365)
   0.900000000   0.000000000   0.000000000
   0.000000000   0.900000000   0.000000000
   0.000000000   0.000000000   1.164514449

ATOMIC_POSITIONS (crystal)
Si               0.0000000000        0.0000000000        0.0000000000
Ni               0.5000000000        0.5000000000        0.5000000000



     Writing config-only to output data dir ./tmp/SiNi-relax.save/ :
     XML data file
     NEW-OLD atomic charge density approx. for the potential
     New effective cutoffs (rho, wfc):  438.90  109.91

     total cpu time spent up to now is       25.3 secs

     Self-consistent Calculation

     iteration #  1     ecut=   110.00 Ry     beta= 0.70
     Davidson diagonalization with overlap
     ethr =  1.00E-06,  avg # of iterations =  7.9

     total cpu time spent up to now is       28.7 secs

     total energy              =    -344.07925087 Ry
     estimated scf accuracy    <       0.00237916 Ry

     iteration #  2     ecut=   110.00 Ry     beta= 0.70
     Davidson diagonalization with overlap
     ethr =  1.08E-05,  avg # of iterations =  2.8

     total cpu time spent up to now is       30.4 secs

     total energy              =    -344.07751262 Ry
     estimated scf accuracy    <       0.02559753 Ry

     iteration #  3     ecut=   110.00 Ry     beta= 0.70
     Davidson diagonalization with overlap
     ethr =  1.08E-05,  avg # of iterations =  2.2

     total cpu time spent up to now is       31.9 secs

     total energy              =    -344.08076980 Ry
     estimated scf accuracy    <       0.00000865 Ry

     iteration #  4     ecut=   110.00 Ry     beta= 0.70
     Davidson diagonalization with overlap
     ethr =  3.93E-08,  avg # of iterations =  4.0

     total cpu time spent up to now is       33.7 secs

     total energy              =    -344.08077662 Ry
     estimated scf accuracy    <       0.00000814 Ry

     iteration #  5     ecut=   110.00 Ry     beta= 0.70
     Davidson diagonalization with overlap
     ethr =  3.70E-08,  avg # of iterations =  1.1

     total cpu time spent up to now is       34.8 secs

     total energy              =    -344.08077687 Ry
     estimated scf accuracy    <       0.00000084 Ry

     iteration #  6     ecut=   110.00 Ry     beta= 0.70
     Davidson diagonalization with overlap
     ethr =  3.83E-09,  avg # of iterations =  2.0

     total cpu time spent up to now is       36.2 secs

     total energy              =    -344.08077705 Ry
     estimated scf accuracy    <       0.00000003 Ry

     iteration #  7     ecut=   110.00 Ry     beta= 0.70
     Davidson diagonalization with overlap
     ethr =  1.21E-10,  avg # of iterations =  1.7

     total cpu time spent up to now is       37.4 secs

     End of self-consistent calculation

          k = 0.0000 0.0000 0.0000 (  2437 PWs)   bands (ev):

   -86.4365 -46.9043 -46.7526 -46.7526   2.9753  12.8724  13.4438  15.2897
    15.2897  15.2913  15.9428  21.5652  23.4883  23.4883  25.0848

          k = 0.0000 0.0000 0.1227 (  2450 PWs)   bands (ev):

   -86.4364 -46.9054 -46.7526 -46.7526   3.2325  12.0098  13.4860  15.0255
    15.2163  15.2163  15.9466  23.0991  23.8395  23.8395  24.9641

          k = 0.0000 0.0000 0.2454 (  2430 PWs)   bands (ev):

   -86.4364 -46.9074 -46.7524 -46.7524   3.9611  10.0825  13.5836  14.9325
    15.0606  15.0606  15.9554  24.6886  24.7893  24.7893  26.1403

          k = 0.0000 0.0000 0.3680 (  2446 PWs)   bands (ev):

   -86.4364 -46.9094 -46.7524 -46.7524   4.8990   8.3701  13.6646  14.9438
    14.9438  14.9725  15.9623  24.4636  25.9517  25.9517  29.7318

          k = 0.0000 0.1587 0.0000 (  2428 PWs)   bands (ev):

   -86.4349 -46.9026 -46.7695 -46.7512   3.4363  13.0638  13.4527  14.1862
    15.3270  15.7425  16.7418  19.9950  21.6798  24.0125  27.2676

          k = 0.0000 0.1587 0.1227 (  2430 PWs)   bands (ev):

   -86.4349 -46.9037 -46.7695 -46.7512   3.6876  12.2546  13.4965  14.2685
    15.2575  15.7510  16.1166  20.2590  23.3359  24.3377  27.1969

          k = 0.0000 0.1587 0.2454 (  2441 PWs)   bands (ev):

   -86.4349 -46.9058 -46.7694 -46.7511   4.3964  10.4508  13.6358  14.4078
    15.1115  15.4438  15.7674  20.9059  25.2092  26.1480  27.1914

          k = 0.0000 0.1587 0.3680 (  2454 PWs)   bands (ev):

   -86.4349 -46.9077 -46.7693 -46.7510   5.2942   8.8256  13.7716  14.5159
    15.0021  15.0938  15.7792  21.5467  26.1372  26.2286  27.3746

          k = 0.0000 0.3175 0.0000 (  2428 PWs)   bands (ev):

   -86.4316 -46.8989 -46.8075 -46.7481   4.7938  12.4977  13.4190  13.5902
    15.3373  15.4114  17.2346  18.6028  22.0033  25.4420  27.6231

          k = 0.0000 0.3175 0.1227 (  2455 PWs)   bands (ev):

   -86.4316 -46.9001 -46.8074 -46.7481   5.0257  12.5749  12.7406  13.8761
    15.3258  15.3778  17.0028  17.7676  23.8419  25.6960  25.9145

          k = 0.0000 0.3175 0.2454 (  2444 PWs)   bands (ev):

   -86.4315 -46.9020 -46.8072 -46.7480   5.6685  11.3892  12.8970  14.0134
    15.2243  15.3824  15.8464  18.1277  23.4583  26.3436  27.1838

          k = 0.0000 0.3175 0.3680 (  2453 PWs)   bands (ev):

   -86.4315 -46.9036 -46.8071 -46.7479   6.4382  10.1145  13.2023  13.9848
    15.1352  15.2722  15.3978  18.7373  21.9946  26.9996  28.5489

          k = 0.0000 0.4762 0.0000 (  2446 PWs)   bands (ev):

   -86.4289 -46.8960 -46.8379 -46.7456   6.9531   9.8442  13.0195  13.9094
    15.0463  15.4800  16.8976  20.9532  22.4663  23.9981  27.5137

          k = 0.0000 0.4762 0.1227 (  2439 PWs)   bands (ev):

   -86.4289 -46.8971 -46.8378 -46.7456   7.1387  10.0119  12.9126  13.9084
    15.0596  15.4322  16.7500  19.2661  21.9353  25.2902  27.6281

          k = 0.0000 0.4762 0.2454 (  2452 PWs)   bands (ev):

   -86.4289 -46.8991 -46.8376 -46.7455   7.6172  10.4821  12.5850  13.8330
    15.0899  15.3274  16.0948  17.9623  20.1217  27.8529  28.1372

          k = 0.0000 0.4762 0.3680 (  2441 PWs)   bands (ev):

   -86.4288 -46.9005 -46.8374 -46.7454   8.0937  11.1331  12.0323  13.6063
    15.1153  15.2452  15.4226  17.6053  19.0643  28.0012  30.0595

          k = 0.1587 0.1587 0.0000 (  2445 PWs)   bands (ev):

   -86.4335 -46.9010 -46.7685 -46.7677   3.8924  13.2228  13.5264  14.0092
    15.0416  15.5062  17.5836  19.7075  21.3855  21.9652  30.4434

          k = 0.1587 0.1587 0.1227 (  2440 PWs)   bands (ev):

   -86.4335 -46.9022 -46.7684 -46.7676   4.1379  12.4684  13.5779  14.1727
    14.9084  15.5169  16.7569  19.9861  21.6795  23.7236  29.7719

          k = 0.1587 0.1587 0.2454 (  2445 PWs)   bands (ev):

   -86.4334 -46.9042 -46.7683 -46.7675   4.8270  10.7996  13.7183  14.4685
    14.6124  15.5307  15.8845  20.6609  22.3187  27.1169  27.9708

          k = 0.1587 0.1587 0.3680 (  2450 PWs)   bands (ev):

   -86.4334 -46.9059 -46.7682 -46.7674   5.6864   9.2652  13.8994  14.3277
    14.8367  15.2815  15.5869  21.3118  23.0509  26.6419  26.8888

          k = 0.1587 0.3175 0.0000 (  2430 PWs)   bands (ev):

   -86.4301 -46.8973 -46.8059 -46.7648   5.2336  12.7181  13.5271  13.7164
    15.0091  15.1366  17.3614  19.2545  21.8921  22.6142  27.9109

          k = 0.1587 0.3175 0.1227 (  2449 PWs)   bands (ev):

   -86.4301 -46.8984 -46.8058 -46.7647   5.4596  12.7975  12.8841  14.0194
    14.8873  15.1706  17.4475  18.0436  22.2186  24.5236  26.2376

          k = 0.1587 0.3175 0.2454 (  2444 PWs)   bands (ev):

   -86.4301 -46.9004 -46.8056 -46.7646   6.0833  11.6700  13.0146  14.2204
    14.7433  15.2177  16.3671  18.2803  22.7073  23.9675  27.9212

          k = 0.1587 0.3175 0.3680 (  2457 PWs)   bands (ev):

   -86.4300 -46.9020 -46.8055 -46.7645   6.8207  10.4845  13.1857  14.1972
    14.9749  15.2492  15.5228  18.9277  22.4277  23.2076  28.1174

          k = 0.1587 0.4762 0.0000 (  2440 PWs)   bands (ev):

   -86.4274 -46.8944 -46.8361 -46.7622   7.3550  10.2132  13.1821  14.1054
    14.8075  15.1034  16.8718  21.4827  22.7022  24.3515  24.4442

          k = 0.1587 0.4762 0.1227 (  2442 PWs)   bands (ev):

   -86.4274 -46.8954 -46.8360 -46.7621   7.5346  10.3752  12.9934  14.1511
    14.9062  15.0436  16.8186  19.7021  22.4855  23.7486  25.9560

          k = 0.1587 0.4762 0.2454 (  2451 PWs)   bands (ev):

   -86.4274 -46.8974 -46.8358 -46.7620   7.9983  10.8136  12.5711  14.1032
    14.9236  15.2085  16.4591  18.1082  20.4979  24.1222  27.6382

          k = 0.1587 0.4762 0.3680 (  2450 PWs)   bands (ev):

   -86.4273 -46.8989 -46.8356 -46.7619   8.4631  11.3492  12.0917  13.8445
    15.1337  15.4371  15.6834  17.6209  19.2644  24.4575  28.2929

          k = 0.3175 0.3175 0.0000 (  2439 PWs)   bands (ev):

   -86.4268 -46.8937 -46.8028 -46.8016   6.5187  13.0241  13.5397  13.6854
    14.4788  14.9624  17.1691  19.7318  20.6576  23.2422  26.7963

          k = 0.3175 0.3175 0.1227 (  2446 PWs)   bands (ev):

   -86.4268 -46.8947 -46.8027 -46.8015   6.7251  12.8854  13.3432  13.7177
    14.5860  15.0067  17.5051  19.0543  19.7312  25.0245  26.8794

          k = 0.3175 0.3175 0.2454 (  2459 PWs)   bands (ev):

   -86.4268 -46.8968 -46.8025 -46.8014   7.2853  12.2007  13.0258  14.1461
    14.7211  15.0906  17.2285  18.3977  19.7027  24.8418  25.3392

          k = 0.3175 0.3175 0.3680 (  2451 PWs)   bands (ev):

   -86.4267 -46.8982 -46.8024 -46.8013   7.9201  11.3713  12.8293  14.7876
    14.8893  15.1684  15.9287  19.4761  19.6558  22.9513  24.4110

          k = 0.3175 0.4762 0.0000 (  2453 PWs)   bands (ev):

   -86.4241 -46.8908 -46.8321 -46.7992   8.4965  11.2318  13.5751  13.9360
    14.4354  14.7341  16.7345  20.4695  22.3211  23.0094  25.2264

          k = 0.3175 0.4762 0.1227 (  2445 PWs)   bands (ev):

   -86.4241 -46.8918 -46.8320 -46.7992   8.6581  11.3489  13.0354  14.2352
    14.6440  14.9005  16.8163  20.3586  20.7484  23.1749  23.8715

          k = 0.3175 0.4762 0.2454 (  2456 PWs)   bands (ev):

   -86.4241 -46.8938 -46.8318 -46.7990   9.0755  11.5878  12.4636  14.4081
    14.8928  15.5102  16.9610  18.5921  20.2608  21.7475  23.6284

          k = 0.3175 0.4762 0.3680 (  2457 PWs)   bands (ev):

   -86.4240 -46.8953 -46.8317 -46.7989   9.4989  11.7305  12.0716  14.8214
    15.2095  15.9642  16.5144  17.5878  19.7093  20.9051  24.0364

          k = 0.4762 0.4762 0.0000 (  2476 PWs)   bands (ev):

   -86.4215 -46.8880 -46.8290 -46.8288  10.0442  12.3336  13.1783  13.9009
    14.0269  14.4512  16.5620  19.0431  20.5373  22.7976  26.9602

          k = 0.4762 0.4762 0.1227 (  2474 PWs)   bands (ev):

   -86.4214 -46.8889 -46.8289 -46.8287  10.1875  12.2688  12.6359  13.8767
    14.7916  14.9838  16.6236  18.7204  20.3988  22.0562  25.1358

          k = 0.4762 0.4762 0.2454 (  2460 PWs)   bands (ev):

   -86.4214 -46.8910 -46.8288 -46.8285  10.5425  12.0689  12.0718  14.4434
    15.7840  15.8401  17.0486  17.8735  19.6096  21.1650  22.8491

          k = 0.4762 0.4762 0.3680 (  2450 PWs)   bands (ev):

   -86.4214 -46.8922 -46.8286 -46.8284  10.8604  11.7759  11.9419  15.3739
    16.1238  16.5198  17.1960  18.1501  18.4162  20.4846  20.8783

     the Fermi energy is    17.5126 ev

!    total energy              =    -344.08077705 Ry
     estimated scf accuracy    <          4.2E-09 Ry
     smearing contrib. (-TS)   =       0.00029987 Ry
     internal energy E=F+TS    =    -344.08107692 Ry

     The total energy is F=E-TS. E is the sum of the following terms:
     one-electron contribution =    -218.94487939 Ry
     hartree contribution      =     123.58816275 Ry
     xc contribution           =     -46.22913752 Ry
     ewald contribution        =    -202.49522275 Ry

     convergence has been achieved in   7 iterations

     Forces acting on atoms (cartesian axes, Ry/au):

     atom    1 type  1   force =     0.00000000    0.00000000    0.00000000
     atom    2 type  2   force =     0.00000000    0.00000000    0.00000000

     Total force =     0.000000     Total SCF correction =     0.000000


     Computing stress (Cartesian axis) and pressure

          total   stress  (Ry/bohr**3)                   (kbar)     P=       89.78
   0.00077476   0.00000000   0.00000000          113.97        0.00        0.00
   0.00000000   0.00077476   0.00000000            0.00      113.97        0.00
   0.00000000   0.00000000   0.00028137            0.00        0.00       41.39

     Energy error            =      7.0E-03 Ry
     Gradient error          =      0.0E+00 Ry/Bohr
     Cell gradient error     =      4.1E+01 kbar

     number of scf cycles    =   3
     number of bfgs steps    =   2

     enthalpy           old  =    -344.0737715469 Ry
     enthalpy           new  =    -344.0807770460 Ry

     CASE: enthalpy          _new < enthalpy          _old

     new trust radius        =       0.0285300043 bohr
     new conv_thr            =       0.0000000100 Ry

     new unit-cell volume =    148.06260 a.u.^3 (    21.94061 Ang^3 )
     density =      6.56772 g/cm^3

CELL_PARAMETERS (alat=  5.37330365)
   0.900000000   0.000000000   0.000000000
   0.000000000   0.900000000   0.000000000
   0.000000000   0.000000000   1.178246635

ATOMIC_POSITIONS (crystal)
Si               0.0000000000        0.0000000000        0.0000000000
Ni               0.5000000000        0.5000000000        0.5000000000



     Writing config-only to output data dir ./tmp/SiNi-relax.save/ :
     XML data file
     NEW-OLD atomic charge density approx. for the potential
     New effective cutoffs (rho, wfc):  438.90  109.91

     total cpu time spent up to now is       38.5 secs

     Self-consistent Calculation

     iteration #  1     ecut=   110.00 Ry     beta= 0.70
     Davidson diagonalization with overlap
     ethr =  1.00E-06,  avg # of iterations =  5.2

     total cpu time spent up to now is       41.0 secs

     total energy              =    -344.08094844 Ry
     estimated scf accuracy    <       0.00012369 Ry

     iteration #  2     ecut=   110.00 Ry     beta= 0.70
     Davidson diagonalization with overlap
     ethr =  5.62E-07,  avg # of iterations =  2.5

     total cpu time spent up to now is       42.6 secs

     total energy              =    -344.08085891 Ry
     estimated scf accuracy    <       0.00131164 Ry

     iteration #  3     ecut=   110.00 Ry     beta= 0.70
     Davidson diagonalization with overlap
     ethr =  5.62E-07,  avg # of iterations =  2.2

     total cpu time spent up to now is       44.1 secs

     total energy              =    -344.08102653 Ry
     estimated scf accuracy    <       0.00000063 Ry

     iteration #  4     ecut=   110.00 Ry     beta= 0.70
     Davidson diagonalization with overlap
     ethr =  2.85E-09,  avg # of iterations =  3.7

     total cpu time spent up to now is       45.7 secs

     total energy              =    -344.08102684 Ry
     estimated scf accuracy    <       0.00000034 Ry

     iteration #  5     ecut=   110.00 Ry     beta= 0.70
     Davidson diagonalization with overlap
     ethr =  1.53E-09,  avg # of iterations =  1.1

     total cpu time spent up to now is       46.9 secs

     total energy              =    -344.08102685 Ry
     estimated scf accuracy    <       0.00000003 Ry

     iteration #  6     ecut=   110.00 Ry     beta= 0.70
     Davidson diagonalization with overlap
     ethr =  1.30E-10,  avg # of iterations =  2.2

     total cpu time spent up to now is       48.4 secs

     End of self-consistent calculation

          k = 0.0000 0.0000 0.0000 (  2437 PWs)   bands (ev):

   -86.6369 -47.1015 -46.9521 -46.9521   2.8289  12.6825  13.2738  14.8924
    15.1003  15.1003  15.7569  21.1103  23.3374  23.3374  24.8466

          k = 0.0000 0.0000 0.1212 (  2450 PWs)   bands (ev):

   -86.6369 -47.1025 -46.9520 -46.9520   3.0780  11.7762  13.3131  14.7094
    15.0323  15.0323  15.7604  22.6047  23.6755  23.6755  24.7310

          k = 0.0000 0.0000 0.2425 (  2430 PWs)   bands (ev):

   -86.6369 -47.1042 -46.9519 -46.9519   3.7815   9.8515  13.4034  14.6716
    14.8875  14.8875  15.7681  24.4676  24.5890  24.5890  25.6177

          k = 0.0000 0.0000 0.3637 (  2446 PWs)   bands (ev):

   -86.6369 -47.1062 -46.9519 -46.9519   4.6765   8.1856  13.4782  14.7213
    14.7782  14.7782  15.7743  24.2531  25.6930  25.6930  28.0656

          k = 0.0000 0.1587 0.0000 (  2428 PWs)   bands (ev):

   -86.6354 -47.0997 -46.9689 -46.9506   3.2895  12.8815  13.2875  13.9230
    15.1373  15.5606  16.4147  19.7970  21.2277  23.8544  27.0436

          k = 0.0000 0.1587 0.1212 (  2430 PWs)   bands (ev):

   -86.6355 -47.1009 -46.9689 -46.9506   3.5328  12.0260  13.3301  14.0441
    15.0731  15.5683  15.8394  20.0497  22.8479  24.1673  26.9678

          k = 0.0000 0.1587 0.2425 (  2441 PWs)   bands (ev):

   -86.6354 -47.1027 -46.9688 -46.9505   4.2171  10.2243  13.4612  14.2103
    14.9375  15.2057  15.5832  20.6703  25.0040  25.7570  26.8416

          k = 0.0000 0.1587 0.3637 (  2454 PWs)   bands (ev):

   -86.6354 -47.1045 -46.9687 -46.9505   5.0737   8.6425  13.5868  14.3447
    14.8354  14.8516  15.5939  21.2810  25.9427  25.9713  27.0954

          k = 0.0000 0.3175 0.0000 (  2428 PWs)   bands (ev):

   -86.6321 -47.0961 -47.0068 -46.9476   4.6463  12.3608  13.1842  13.4077
    15.1623  15.2211  17.0099  18.2415  21.5756  25.2688  27.2298

          k = 0.0000 0.3175 0.1212 (  2455 PWs)   bands (ev):

   -86.6321 -47.0973 -47.0067 -46.9475   4.8707  12.4095  12.5431  13.6795
    15.1466  15.1951  16.7335  17.4851  23.4086  25.5118  25.5482

          k = 0.0000 0.3175 0.2425 (  2444 PWs)   bands (ev):

   -86.6321 -47.0990 -47.0065 -46.9475   5.4905  11.1781  12.7437  13.8195
    15.0486  15.2033  15.5890  17.8639  23.1909  26.1303  26.7352

          k = 0.0000 0.3175 0.3637 (  2453 PWs)   bands (ev):

   -86.6321 -47.1005 -47.0064 -46.9474   6.2250   9.9360  13.0357  13.7983
    14.9658  15.0308  15.2176  18.4452  21.7771  26.7521  28.2544

          k = 0.0000 0.4762 0.0000 (  2446 PWs)   bands (ev):

   -86.6294 -47.0932 -47.0370 -46.9451   6.8063   9.7023  12.7991  13.7251
    14.8755  15.2891  16.6854  20.5682  22.0914  23.6065  27.3191

          k = 0.0000 0.4762 0.1212 (  2439 PWs)   bands (ev):

   -86.6294 -47.0943 -47.0369 -46.9451   6.9852   9.8632  12.7017  13.7207
    14.8877  15.2453  16.5278  18.9256  21.5953  24.8700  27.4256

          k = 0.0000 0.4762 0.2425 (  2452 PWs)   bands (ev):

   -86.6294 -47.0961 -47.0368 -46.9450   7.4449  10.3145  12.3950  13.6422
    14.9154  15.1490  15.8474  17.6711  19.8415  27.6358  27.7337

          k = 0.0000 0.4762 0.3637 (  2441 PWs)   bands (ev):

   -86.6294 -47.0974 -47.0366 -46.9449   7.8994  10.9410  11.8579  13.4278
    14.9385  15.0734  15.1809  17.3080  18.8366  27.7756  29.7321

          k = 0.1587 0.1587 0.0000 (  2445 PWs)   bands (ev):

   -86.6339 -47.0981 -46.9679 -46.9671   3.7453  13.0464  13.3656  13.7521
    14.8516  15.3292  17.2487  19.5001  21.1654  21.5426  30.2530

          k = 0.1587 0.1587 0.1212 (  2440 PWs)   bands (ev):

   -86.6340 -47.0994 -46.9678 -46.9670   3.9829  12.2458  13.4148  13.9563
    14.7241  15.3386  16.4694  19.7686  21.4841  23.2232  29.5357

          k = 0.1587 0.1587 0.2425 (  2445 PWs)   bands (ev):

   -86.6339 -47.1012 -46.9677 -46.9670   4.6480  10.5780  13.5486  14.2663
    14.4399  15.3474  15.6474  20.4184  22.0950  26.5641  27.7372

          k = 0.1587 0.1587 0.3637 (  2450 PWs)   bands (ev):

   -86.6339 -47.1027 -46.9676 -46.9669   5.4679   9.0838  13.7182  14.1692
    14.6351  15.0611  15.4027  21.0412  22.7845  26.4424  26.6739

          k = 0.1587 0.3175 0.0000 (  2430 PWs)   bands (ev):

   -86.6306 -47.0944 -47.0051 -46.9642   5.0863  12.5798  13.2955  13.5440
    14.8156  14.9652  17.1354  18.8927  21.6347  22.2302  27.5199

          k = 0.1587 0.3175 0.1212 (  2449 PWs)   bands (ev):

   -86.6306 -47.0956 -47.0051 -46.9642   5.3049  12.6346  12.6897  13.8290
    14.6998  14.9961  17.2018  17.7354  22.0097  24.0511  25.8909

          k = 0.1587 0.3175 0.2425 (  2444 PWs)   bands (ev):

   -86.6306 -47.0973 -47.0049 -46.9640   5.9062  11.4647  12.8641  14.0291
    14.5594  15.0403  16.1101  18.0184  22.4760  23.6939  27.4123

          k = 0.1587 0.3175 0.3637 (  2457 PWs)   bands (ev):

   -86.6306 -47.0989 -47.0048 -46.9640   6.6099  10.3092  13.0291  14.0126
    14.7769  15.0695  15.2970  18.6373  22.2089  22.9461  27.9006

          k = 0.1587 0.4762 0.0000 (  2440 PWs)   bands (ev):

   -86.6279 -47.0916 -47.0353 -46.9616   7.2095  10.0721  12.9653  13.9277
    14.6360  14.9093  16.6596  21.1001  22.3922  23.9586  24.1494

          k = 0.1587 0.4762 0.1212 (  2442 PWs)   bands (ev):

   -86.6279 -47.0926 -47.0352 -46.9615   7.3827  10.2276  12.7903  13.9678
    14.7279  14.8546  16.5999  19.3622  22.1475  23.5102  25.5631

          k = 0.1587 0.4762 0.2425 (  2451 PWs)   bands (ev):

   -86.6279 -47.0945 -47.0350 -46.9614   7.8283  10.6484  12.3910  13.9170
    14.7367  15.0235  16.2223  17.8157  20.2159  23.8875  27.3788

          k = 0.1587 0.4762 0.3637 (  2450 PWs)   bands (ev):

   -86.6279 -47.0958 -47.0348 -46.9614   8.2716  11.1642  11.9287  13.6670
    14.9332  15.2536  15.4580  17.3280  19.0372  24.2043  28.0388

          k = 0.3175 0.3175 0.0000 (  2439 PWs)   bands (ev):

   -86.6273 -47.0908 -47.0021 -47.0009   6.3729  12.8811  13.3970  13.4633
    14.2868  14.7939  16.9459  19.5022  20.2848  22.8213  26.5688

          k = 0.3175 0.3175 0.1212 (  2446 PWs)   bands (ev):

   -86.6273 -47.0919 -47.0020 -47.0008   6.5724  12.7162  13.1980  13.5201
    14.3980  14.8358  17.2747  18.7222  19.4932  24.6214  26.5758

          k = 0.3175 0.3175 0.2425 (  2459 PWs)   bands (ev):

   -86.6273 -47.0939 -47.0019 -47.0007   7.1122  12.0189  12.8811  13.9581
    14.5349  14.9152  16.9481  18.1454  19.4517  24.5661  25.0541

          k = 0.3175 0.3175 0.3637 (  2451 PWs)   bands (ev):

   -86.6273 -47.0951 -47.0017 -47.0006   7.7183  11.2081  12.6864  14.6010
    14.6881  14.9831  15.6901  19.1821  19.3926  22.7358  24.1811

          k = 0.3175 0.4762 0.0000 (  2453 PWs)   bands (ev):

   -86.6246 -47.0880 -47.0313 -46.9986   8.3568  11.0924  13.3676  13.7783
    14.2401  14.5669  16.5230  20.2376  21.9435  22.7919  24.8147

          k = 0.3175 0.4762 0.1212 (  2445 PWs)   bands (ev):

   -86.6246 -47.0889 -47.0312 -46.9985   8.5126  11.2045  12.8583  14.0508
    14.4569  14.7217  16.5998  20.0900  20.4406  22.9582  23.5196

          k = 0.3175 0.4762 0.2425 (  2456 PWs)   bands (ev):

   -86.6246 -47.0909 -47.0311 -46.9984   8.9137  11.4329  12.3027  14.2195
    14.7111  15.3124  16.7275  18.3008  20.0124  21.4630  23.3873

          k = 0.3175 0.4762 0.3637 (  2457 PWs)   bands (ev):

   -86.6246 -47.0922 -47.0309 -46.9983   9.3175  11.5704  11.9250  14.6370
    14.9978  15.7587  16.2880  17.3107  19.4911  20.6265  23.7725

          k = 0.4762 0.4762 0.0000 (  2476 PWs)   bands (ev):

   -86.6220 -47.0851 -47.0282 -47.0280   9.9211  12.1905  13.0298  13.7026
    13.8328  14.2957  16.3578  18.7748  20.3245  22.4289  26.5299

          k = 0.4762 0.4762 0.1212 (  2474 PWs)   bands (ev):

   -86.6220 -47.0860 -47.0281 -47.0279  10.0590  12.1222  12.4843  13.6978
    14.5992  14.8026  16.4168  18.4455  20.1780  21.7347  24.7707

          k = 0.4762 0.4762 0.2425 (  2460 PWs)   bands (ev):

   -86.6220 -47.0881 -47.0280 -47.0278  10.3991  11.9245  11.9254  14.2554
    15.5892  15.6365  16.8254  17.6020  19.3691  20.8887  22.5479

          k = 0.4762 0.4762 0.3637 (  2450 PWs)   bands (ev):

   -86.6219 -47.0891 -47.0279 -47.0277  10.7011  11.6332  11.8037  15.1576
    15.9300  16.2790  16.9568  17.9317  18.1556  20.2357  20.5982

     the Fermi energy is    17.2451 ev

!    total energy              =    -344.08102686 Ry
     estimated scf accuracy    <          3.5E-09 Ry
     smearing contrib. (-TS)   =       0.00010358 Ry
     internal energy E=F+TS    =    -344.08113044 Ry

     The total energy is F=E-TS. E is the sum of the following terms:
     one-electron contribution =    -220.69739271 Ry
     hartree contribution      =     124.29809637 Ry
     xc contribution           =     -46.21189273 Ry
     ewald contribution        =    -201.46994137 Ry

     convergence has been achieved in   6 iterations

     Forces acting on atoms (cartesian axes, Ry/au):

     atom    1 type  1   force =     0.00000000    0.00000000    0.00000000
     atom    2 type  2   force =     0.00000000    0.00000000    0.00000000

     Total force =     0.000000     Total SCF correction =     0.000000


     Computing stress (Cartesian axis) and pressure

          total   stress  (Ry/bohr**3)                   (kbar)     P=       61.25
   0.00062460   0.00000000   0.00000000           91.88        0.00        0.00
   0.00000000   0.00062460   0.00000000            0.00       91.88        0.00
   0.00000000   0.00000000  -0.00000014            0.00        0.00       -0.02

     Energy error            =      2.5E-04 Ry
     Gradient error          =      0.0E+00 Ry/Bohr
     Cell gradient error     =      2.1E-02 kbar

     number of scf cycles    =   4
     number of bfgs steps    =   3

     enthalpy           old  =    -344.0807770460 Ry
     enthalpy           new  =    -344.0810268587 Ry

     CASE: enthalpy          _new < enthalpy          _old

     small trust_radius: resetting bfgs history

     new trust radius        =       0.0000086526 bohr
     new conv_thr            =       0.0000000100 Ry

     new unit-cell volume =    148.06208 a.u.^3 (    21.94054 Ang^3 )
     density =      6.56774 g/cm^3

CELL_PARAMETERS (alat=  5.37330365)
   0.900000000   0.000000000   0.000000000
   0.000000000   0.900000000   0.000000000
   0.000000000   0.000000000   1.178242446

ATOMIC_POSITIONS (crystal)
Si               0.0000000000        0.0000000000        0.0000000000
Ni               0.5000000000        0.5000000000        0.5000000000



     Writing config-only to output data dir ./tmp/SiNi-relax.save/ :
     XML data file
     NEW-OLD atomic charge density approx. for the potential
     New effective cutoffs (rho, wfc):  438.90  109.91

     total cpu time spent up to now is       49.5 secs

     Self-consistent Calculation

     iteration #  1     ecut=   110.00 Ry     beta= 0.70
     Davidson diagonalization with overlap
     ethr =  1.00E-06,  avg # of iterations =  1.0

     Threshold (ethr) on eigenvalues was too large:
     Diagonalizing with lowered threshold

     Davidson diagonalization with overlap
     ethr =  3.42E-10,  avg # of iterations =  1.0

     total cpu time spent up to now is       51.8 secs

     total energy              =    -344.08102680 Ry
     estimated scf accuracy    <       0.00000008 Ry

     iteration #  2     ecut=   110.00 Ry     beta= 0.70
     Davidson diagonalization with overlap
     ethr =  3.72E-10,  avg # of iterations =  2.9

     total cpu time spent up to now is       53.4 secs

     total energy              =    -344.08102674 Ry
     estimated scf accuracy    <       0.00000097 Ry

     iteration #  3     ecut=   110.00 Ry     beta= 0.70
     Davidson diagonalization with overlap
     ethr =  3.72E-10,  avg # of iterations =  2.2

     total cpu time spent up to now is       54.9 secs

     End of self-consistent calculation

          k = 0.0000 0.0000 0.0000 (  2437 PWs)   bands (ev):

   -86.6372 -47.1017 -46.9522 -46.9522   2.8290  12.6825  13.2738  14.8925
    15.1002  15.1002  15.7569  21.1104  23.3374  23.3374  24.8467

          k = 0.0000 0.0000 0.1212 (  2450 PWs)   bands (ev):

   -86.6372 -47.1027 -46.9522 -46.9522   3.0780  11.7763  13.3130  14.7095
    15.0322  15.0322  15.7603  22.6048  23.6755  23.6755  24.7310

          k = 0.0000 0.0000 0.2425 (  2430 PWs)   bands (ev):

   -86.6371 -47.1044 -46.9521 -46.9521   3.7816   9.8515  13.4033  14.6716
    14.8874  14.8874  15.7681  24.4676  24.5890  24.5890  25.6178

          k = 0.0000 0.0000 0.3637 (  2446 PWs)   bands (ev):

   -86.6371 -47.1064 -46.9520 -46.9520   4.6766   8.1857  13.4782  14.7212
    14.7781  14.7781  15.7743  24.2532  25.6930  25.6930  28.0657

          k = 0.0000 0.1587 0.0000 (  2428 PWs)   bands (ev):

   -86.6356 -47.0999 -46.9691 -46.9508   3.2896  12.8815  13.2874  13.9230
    15.1373  15.5605  16.4147  19.7970  21.2278  23.8545  27.0437

          k = 0.0000 0.1587 0.1212 (  2430 PWs)   bands (ev):

   -86.6357 -47.1010 -46.9690 -46.9508   3.5329  12.0260  13.3300  14.0441
    15.0730  15.5682  15.8394  20.0497  22.8480  24.1673  26.9678

          k = 0.0000 0.1587 0.2425 (  2441 PWs)   bands (ev):

   -86.6356 -47.1029 -46.9689 -46.9507   4.2171  10.2243  13.4611  14.2103
    14.9374  15.2056  15.5831  20.6703  25.0041  25.7572  26.8417

          k = 0.0000 0.1587 0.3637 (  2454 PWs)   bands (ev):

   -86.6356 -47.1047 -46.9689 -46.9507   5.0737   8.6426  13.5867  14.3447
    14.8353  14.8516  15.5938  21.2810  25.9427  25.9714  27.0955

          k = 0.0000 0.3175 0.0000 (  2428 PWs)   bands (ev):

   -86.6323 -47.0962 -47.0069 -46.9477   4.6463  12.3608  13.1842  13.4076
    15.1622  15.2210  17.0099  18.2415  21.5757  25.2688  27.2299

          k = 0.0000 0.3175 0.1212 (  2455 PWs)   bands (ev):

   -86.6323 -47.0975 -47.0069 -46.9477   4.8707  12.4095  12.5431  13.6794
    15.1465  15.1950  16.7335  17.4851  23.4087  25.5118  25.5483

          k = 0.0000 0.3175 0.2425 (  2444 PWs)   bands (ev):

   -86.6323 -47.0992 -47.0067 -46.9476   5.4906  11.1782  12.7437  13.8195
    15.0485  15.2032  15.5890  17.8639  23.1909  26.1304  26.7353

          k = 0.0000 0.3175 0.3637 (  2453 PWs)   bands (ev):

   -86.6323 -47.1006 -47.0066 -46.9476   6.2251   9.9361  13.0357  13.7983
    14.9657  15.0308  15.2175  18.4452  21.7771  26.7522  28.2545

          k = 0.0000 0.4762 0.0000 (  2446 PWs)   bands (ev):

   -86.6296 -47.0933 -47.0372 -46.9453   6.8063   9.7023  12.7990  13.7251
    14.8754  15.2890  16.6853  20.5682  22.0915  23.6066  27.3191

          k = 0.0000 0.4762 0.1212 (  2439 PWs)   bands (ev):

   -86.6296 -47.0945 -47.0371 -46.9452   6.9853   9.8632  12.7016  13.7206
    14.8876  15.2452  16.5277  18.9256  21.5954  24.8701  27.4257

          k = 0.0000 0.4762 0.2425 (  2452 PWs)   bands (ev):

   -86.6296 -47.0963 -47.0369 -46.9451   7.4449  10.3145  12.3950  13.6422
    14.9153  15.1489  15.8473  17.6711  19.8415  27.6359  27.7339

          k = 0.0000 0.4762 0.3637 (  2441 PWs)   bands (ev):

   -86.6296 -47.0976 -47.0368 -46.9451   7.8995  10.9410  11.8579  13.4277
    14.9384  15.0733  15.1809  17.3080  18.8366  27.7756  29.7322

          k = 0.1587 0.1587 0.0000 (  2445 PWs)   bands (ev):

   -86.6342 -47.0983 -46.9680 -46.9673   3.7454  13.0464  13.3656  13.7521
    14.8515  15.3292  17.2487  19.5001  21.1654  21.5427  30.2531

          k = 0.1587 0.1587 0.1212 (  2440 PWs)   bands (ev):

   -86.6342 -47.0995 -46.9680 -46.9672   3.9830  12.2459  13.4147  13.9563
    14.7240  15.3385  16.4694  19.7686  21.4842  23.2234  29.5357

          k = 0.1587 0.1587 0.2425 (  2445 PWs)   bands (ev):

   -86.6342 -47.1013 -46.9679 -46.9671   4.6480  10.5781  13.5486  14.2662
    14.4398  15.3473  15.6474  20.4184  22.0950  26.5642  27.7372

          k = 0.1587 0.1587 0.3637 (  2450 PWs)   bands (ev):

   -86.6341 -47.1029 -46.9678 -46.9671   5.4680   9.0838  13.7182  14.1692
    14.6351  15.0610  15.4026  21.0412  22.7846  26.4425  26.6739

          k = 0.1587 0.3175 0.0000 (  2430 PWs)   bands (ev):

   -86.6308 -47.0946 -47.0053 -46.9644   5.0863  12.5798  13.2955  13.5439
    14.8155  14.9651  17.1353  18.8927  21.6348  22.2303  27.5200

          k = 0.1587 0.3175 0.1212 (  2449 PWs)   bands (ev):

   -86.6308 -47.0957 -47.0053 -46.9643   5.3050  12.6346  12.6897  13.8290
    14.6997  14.9960  17.2018  17.7354  22.0097  24.0512  25.8910

          k = 0.1587 0.3175 0.2425 (  2444 PWs)   bands (ev):

   -86.6308 -47.0975 -47.0051 -46.9642   5.9063  11.4647  12.8641  14.0290
    14.5594  15.0402  16.1100  18.0184  22.4760  23.6940  27.4124

          k = 0.1587 0.3175 0.3637 (  2457 PWs)   bands (ev):

   -86.6308 -47.0991 -47.0050 -46.9642   6.6100  10.3092  13.0291  14.0126
    14.7768  15.0694  15.2970  18.6373  22.2089  22.9462  27.9006

          k = 0.1587 0.4762 0.0000 (  2440 PWs)   bands (ev):

   -86.6281 -47.0917 -47.0354 -46.9618   7.2096  10.0722  12.9653  13.9277
    14.6359  14.9092  16.6595  21.1002  22.3923  23.9587  24.1494

          k = 0.1587 0.4762 0.1212 (  2442 PWs)   bands (ev):

   -86.6282 -47.0928 -47.0353 -46.9617   7.3828  10.2277  12.7902  13.9677
    14.7278  14.8546  16.5998  19.3623  22.1476  23.5103  25.5632

          k = 0.1587 0.4762 0.2425 (  2451 PWs)   bands (ev):

   -86.6281 -47.0946 -47.0352 -46.9616   7.8283  10.6484  12.3910  13.9169
    14.7367  15.0234  16.2222  17.8157  20.2159  23.8876  27.3789

          k = 0.1587 0.4762 0.3637 (  2450 PWs)   bands (ev):

   -86.6281 -47.0960 -47.0350 -46.9615   8.2716  11.1642  11.9287  13.6670
    14.9332  15.2536  15.4579  17.3280  19.0372  24.2043  28.0388

          k = 0.3175 0.3175 0.0000 (  2439 PWs)   bands (ev):

   -86.6275 -47.0910 -47.0023 -47.0011   6.3729  12.8811  13.3969  13.4633
    14.2868  14.7938  16.9459  19.5022  20.2849  22.8214  26.5689

          k = 0.3175 0.3175 0.1212 (  2446 PWs)   bands (ev):

   -86.6275 -47.0920 -47.0022 -47.0010   6.5724  12.7162  13.1980  13.5201
    14.3980  14.8357  17.2747  18.7223  19.4932  24.6215  26.5759

          k = 0.3175 0.3175 0.2425 (  2459 PWs)   bands (ev):

   -86.6275 -47.0941 -47.0020 -47.0009   7.1123  12.0189  12.8811  13.9580
    14.5348  14.9152  16.9481  18.1455  19.4518  24.5662  25.0542

          k = 0.3175 0.3175 0.3637 (  2451 PWs)   bands (ev):

   -86.6275 -47.0952 -47.0019 -47.0008   7.7183  11.2082  12.6864  14.6009
    14.6881  14.9830  15.6900  19.1821  19.3926  22.7358  24.1811

          k = 0.3175 0.4762 0.0000 (  2453 PWs)   bands (ev):

   -86.6248 -47.0882 -47.0315 -46.9987   8.3568  11.0925  13.3676  13.7782
    14.2401  14.5668  16.5230  20.2376  21.9435  22.7920  24.8148

          k = 0.3175 0.4762 0.1212 (  2445 PWs)   bands (ev):

   -86.6248 -47.0891 -47.0314 -46.9987   8.5126  11.2045  12.8583  14.0507
    14.4569  14.7217  16.5998  20.0901  20.4407  22.9582  23.5197

          k = 0.3175 0.4762 0.2425 (  2456 PWs)   bands (ev):

   -86.6249 -47.0911 -47.0312 -46.9985   8.9138  11.4330  12.3027  14.2194
    14.7110  15.3124  16.7274  18.3009  20.0125  21.4630  23.3873

          k = 0.3175 0.4762 0.3637 (  2457 PWs)   bands (ev):

   -86.6248 -47.0923 -47.0311 -46.9985   9.3175  11.5704  11.9250  14.6370
    14.9977  15.7587  16.2880  17.3107  19.4911  20.6265  23.7726

          k = 0.4762 0.4762 0.0000 (  2476 PWs)   bands (ev):

   -86.6222 -47.0853 -47.0284 -47.0282   9.9211  12.1905  13.0298  13.7026
    13.8328  14.2957  16.3578  18.7748  20.3245  22.4290  26.5300

          k = 0.4762 0.4762 0.1212 (  2474 PWs)   bands (ev):

   -86.6222 -47.0862 -47.0283 -47.0281  10.0590  12.1222  12.4843  13.6978
    14.5992  14.8025  16.4167  18.4455  20.1780  21.7347  24.7708

          k = 0.4762 0.4762 0.2425 (  2460 PWs)   bands (ev):

   -86.6222 -47.0883 -47.0282 -47.0280  10.3992  11.9244  11.9254  14.2553
    15.5892  15.6365  16.8254  17.6020  19.3691  20.8888  22.5479

          k = 0.4762 0.4762 0.3637 (  2450 PWs)   bands (ev):

   -86.6222 -47.0893 -47.0281 -47.0278  10.7011  11.6332  11.8037  15.1576
    15.9299  16.2790  16.9568  17.9317  18.1556  20.2358  20.5983

     the Fermi energy is    17.2451 ev

!    total energy              =    -344.08102686 Ry
     estimated scf accuracy    <          1.7E-10 Ry
     smearing contrib. (-TS)   =       0.00010360 Ry
     internal energy E=F+TS    =    -344.08113046 Ry

     The total energy is F=E-TS. E is the sum of the following terms:
     one-electron contribution =    -220.69754113 Ry
     hartree contribution      =     124.29864418 Ry
     xc contribution           =     -46.21198016 Ry
     ewald contribution        =    -201.47025335 Ry

     convergence has been achieved in   3 iterations

     Forces acting on atoms (cartesian axes, Ry/au):

     atom    1 type  1   force =     0.00000000    0.00000000    0.00000000
     atom    2 type  2   force =     0.00000000    0.00000000    0.00000000

     Total force =     0.000000     Total SCF correction =     0.000000


     Computing stress (Cartesian axis) and pressure

          total   stress  (Ry/bohr**3)                   (kbar)     P=       61.54
   0.00062655   0.00000000   0.00000000           92.17        0.00        0.00
   0.00000000   0.00062655   0.00000000            0.00       92.17        0.00
   0.00000000   0.00000000   0.00000198            0.00        0.00        0.29

     Energy error            =      5.2E-10 Ry
     Gradient error          =      0.0E+00 Ry/Bohr
     Cell gradient error     =      2.9E-01 kbar

     bfgs converged in   5 scf cycles and   4 bfgs steps
     (criteria: energy <  1.0E-04 Ry, force <  1.0E-03 Ry/Bohr, cell <  5.0E-01 kbar)

     End of BFGS Geometry Optimization

     Final enthalpy           =    -344.0810268592 Ry

     File ./tmp/SiNi-relax.bfgs deleted, as requested
Begin final coordinates
     new unit-cell volume =    148.06208 a.u.^3 (    21.94054 Ang^3 )
     density =      6.56774 g/cm^3

CELL_PARAMETERS (alat=  5.37330365)
   0.900000000   0.000000000   0.000000000
   0.000000000   0.900000000   0.000000000
   0.000000000   0.000000000   1.178242446

ATOMIC_POSITIONS (crystal)
Si               0.0000000000        0.0000000000        0.0000000000
Ni               0.5000000000        0.5000000000        0.5000000000
End final coordinates



     Writing config-only to output data dir ./tmp/SiNi-relax.save/ :
     XML data file

     Final scf calculation at the relaxed structure.
     The G-vectors are recalculated for the final unit cell
     Results may differ from those at the preceding step.

     G-vector sticks info
     --------------------
     sticks:   dense  smooth     PW     G-vecs:    dense   smooth      PW
     Sum         821     821    241                23079    23079    3703

     Using Slab Decomposition



     bravais-lattice index     =            0
     lattice parameter (alat)  =       5.3733  a.u.
     unit-cell volume          =     148.0621 (a.u.)^3
     number of atoms/cell      =            2
     number of atomic types    =            2
     number of electrons       =        22.00
     number of Kohn-Sham states=           15
     kinetic-energy cutoff     =     110.0000  Ry
     charge density cutoff     =     440.0000  Ry
     scf convergence threshold =      1.0E-08
     mixing beta               =       0.7000
     number of iterations used =            8  plain     mixing
     press convergence thresh. =      5.0E-01
     Exchange-correlation= PBE
                           (   1   4   3   4   0   0   0)

     celldm(1)=   5.373304  celldm(2)=   0.000000  celldm(3)=   0.000000
     celldm(4)=   0.000000  celldm(5)=   0.000000  celldm(6)=   0.000000

     crystal axes: (cart. coord. in units of alat)
               a(1) = (   0.900000   0.000000   0.000000 )  
               a(2) = (   0.000000   0.900000   0.000000 )  
               a(3) = (   0.000000   0.000000   1.178242 )  

     reciprocal axes: (cart. coord. in units 2 pi/alat)
               b(1) = (  1.111111  0.000000  0.000000 )  
               b(2) = (  0.000000  1.111111  0.000000 )  
               b(3) = (  0.000000  0.000000  0.848722 )  


     PseudoPot. # 1 for Si read from file:
     ./PSEUDO/Si.upf
     MD5 check sum: 02fab3f35e82123ef5bf1cb05d5b1a5e
     Pseudo is Norm-conserving + core correction, Zval =  4.0
     Generated using ONCVPSP code by D. R. Hamann
     Using radial grid of 1510 points,  6 beta functions with: 
                l(1) =   0
                l(2) =   0
                l(3) =   1
                l(4) =   1
                l(5) =   2
                l(6) =   2

     PseudoPot. # 2 for Ni read from file:
     ./PSEUDO/Ni.upf
     MD5 check sum: 2b0a79d100e227970886d6963e34175b
     Pseudo is Norm-conserving + core correction, Zval = 18.0
     Generated using ONCVPSP code by D. R. Hamann
     Using radial grid of 1372 points,  6 beta functions with: 
                l(1) =   0
                l(2) =   0
                l(3) =   1
                l(4) =   1
                l(5) =   2
                l(6) =   2

     atomic species   valence    mass     pseudopotential
     Si                4.00    28.08550     Si( 1.00)
     Ni               18.00    58.69340     Ni( 1.00)

     16 Sym. Ops., with inversion, found



   Cartesian axes

     site n.     atom                  positions (alat units)
         1        Si     tau(   1) = (   0.0000000   0.0000000   0.0000000  )
         2        Ni     tau(   2) = (   0.4500000   0.4500000   0.5891212  )

     number of k points=    40  Methfessel-Paxton smearing, width (Ry)=  0.0400
                       cart. coord. in units 2pi/alat
        k(    1) = (   0.0000000   0.0000000   0.0000000), wk =   0.0058309
        k(    2) = (   0.0000000   0.0000000   0.1212460), wk =   0.0116618
        k(    3) = (   0.0000000   0.0000000   0.2424919), wk =   0.0116618
        k(    4) = (   0.0000000   0.0000000   0.3637379), wk =   0.0116618
        k(    5) = (   0.0000000   0.1587302   0.0000000), wk =   0.0233236
        k(    6) = (   0.0000000   0.1587302   0.1212460), wk =   0.0466472
        k(    7) = (   0.0000000   0.1587302   0.2424919), wk =   0.0466472
        k(    8) = (   0.0000000   0.1587302   0.3637379), wk =   0.0466472
        k(    9) = (   0.0000000   0.3174603   0.0000000), wk =   0.0233236
        k(   10) = (   0.0000000   0.3174603   0.1212460), wk =   0.0466472
        k(   11) = (   0.0000000   0.3174603   0.2424919), wk =   0.0466472
        k(   12) = (   0.0000000   0.3174603   0.3637379), wk =   0.0466472
        k(   13) = (   0.0000000   0.4761905   0.0000000), wk =   0.0233236
        k(   14) = (   0.0000000   0.4761905   0.1212460), wk =   0.0466472
        k(   15) = (   0.0000000   0.4761905   0.2424919), wk =   0.0466472
        k(   16) = (   0.0000000   0.4761905   0.3637379), wk =   0.0466472
        k(   17) = (   0.1587302   0.1587302   0.0000000), wk =   0.0233236
        k(   18) = (   0.1587302   0.1587302   0.1212460), wk =   0.0466472
        k(   19) = (   0.1587302   0.1587302   0.2424919), wk =   0.0466472
        k(   20) = (   0.1587302   0.1587302   0.3637379), wk =   0.0466472
        k(   21) = (   0.1587302   0.3174603   0.0000000), wk =   0.0466472
        k(   22) = (   0.1587302   0.3174603   0.1212460), wk =   0.0932945
        k(   23) = (   0.1587302   0.3174603   0.2424919), wk =   0.0932945
        k(   24) = (   0.1587302   0.3174603   0.3637379), wk =   0.0932945
        k(   25) = (   0.1587302   0.4761905   0.0000000), wk =   0.0466472
        k(   26) = (   0.1587302   0.4761905   0.1212460), wk =   0.0932945
        k(   27) = (   0.1587302   0.4761905   0.2424919), wk =   0.0932945
        k(   28) = (   0.1587302   0.4761905   0.3637379), wk =   0.0932945
        k(   29) = (   0.3174603   0.3174603   0.0000000), wk =   0.0233236
        k(   30) = (   0.3174603   0.3174603   0.1212460), wk =   0.0466472
        k(   31) = (   0.3174603   0.3174603   0.2424919), wk =   0.0466472
        k(   32) = (   0.3174603   0.3174603   0.3637379), wk =   0.0466472
        k(   33) = (   0.3174603   0.4761905   0.0000000), wk =   0.0466472
        k(   34) = (   0.3174603   0.4761905   0.1212460), wk =   0.0932945
        k(   35) = (   0.3174603   0.4761905   0.2424919), wk =   0.0932945
        k(   36) = (   0.3174603   0.4761905   0.3637379), wk =   0.0932945
        k(   37) = (   0.4761905   0.4761905   0.0000000), wk =   0.0233236
        k(   38) = (   0.4761905   0.4761905   0.1212460), wk =   0.0466472
        k(   39) = (   0.4761905   0.4761905   0.2424919), wk =   0.0466472
        k(   40) = (   0.4761905   0.4761905   0.3637379), wk =   0.0466472

     Dense  grid:    23079 G-vectors     FFT dimensions: (  36,  36,  45)

     Estimated max dynamical RAM per process >      52.69 MB

     Initial potential from superposition of free atoms

     starting charge      21.9992, renormalised to      22.0000
     Starting wfcs are   14 randomized atomic wfcs +    1 random wfcs

     total cpu time spent up to now is       56.7 secs

     Self-consistent Calculation

     iteration #  1     ecut=   110.00 Ry     beta= 0.70
     Davidson diagonalization with overlap
     ethr =  1.00E-06,  avg # of iterations = 11.9

     total cpu time spent up to now is       61.7 secs

     total energy              =    -343.96421683 Ry
     estimated scf accuracy    <       0.18685691 Ry

     iteration #  2     ecut=   110.00 Ry     beta= 0.70
     Davidson diagonalization with overlap
     ethr =  8.49E-04,  avg # of iterations =  2.7

     total cpu time spent up to now is       63.9 secs

     total energy              =    -343.75547080 Ry
     estimated scf accuracy    <       2.54974549 Ry

     iteration #  3     ecut=   110.00 Ry     beta= 0.70
     Davidson diagonalization with overlap
     ethr =  8.49E-04,  avg # of iterations =  2.4

     total cpu time spent up to now is       65.9 secs

     total energy              =    -344.08083682 Ry
     estimated scf accuracy    <       0.00643514 Ry

     iteration #  4     ecut=   110.00 Ry     beta= 0.70
     Davidson diagonalization with overlap
     ethr =  2.93E-05,  avg # of iterations =  1.9

     total cpu time spent up to now is       67.8 secs

     total energy              =    -344.08160176 Ry
     estimated scf accuracy    <       0.00061413 Ry

     iteration #  5     ecut=   110.00 Ry     beta= 0.70
     Davidson diagonalization with overlap
     ethr =  2.79E-06,  avg # of iterations =  1.9

     total cpu time spent up to now is       69.7 secs

     total energy              =    -344.08167556 Ry
     estimated scf accuracy    <       0.00001680 Ry

     iteration #  6     ecut=   110.00 Ry     beta= 0.70
     Davidson diagonalization with overlap
     ethr =  7.64E-08,  avg # of iterations =  2.5

     total cpu time spent up to now is       71.6 secs

     total energy              =    -344.08168077 Ry
     estimated scf accuracy    <       0.00000447 Ry

     iteration #  7     ecut=   110.00 Ry     beta= 0.70
     Davidson diagonalization with overlap
     ethr =  2.03E-08,  avg # of iterations =  1.4

     total cpu time spent up to now is       73.2 secs

     total energy              =    -344.08168118 Ry
     estimated scf accuracy    <       0.00000013 Ry

     iteration #  8     ecut=   110.00 Ry     beta= 0.70
     Davidson diagonalization with overlap
     ethr =  5.84E-10,  avg # of iterations =  3.0

     total cpu time spent up to now is       75.0 secs

     End of self-consistent calculation

          k = 0.0000 0.0000 0.0000 (  2873 PWs)   bands (ev):

   -86.6337 -47.1030 -46.9488 -46.9488   2.8289  12.6802  13.2751  14.8923
    15.0999  15.0999  15.7587  21.1084  23.3374  23.3374  24.8469

          k = 0.0000 0.0000 0.1212 (  2881 PWs)   bands (ev):

   -86.6336 -47.1038 -46.9488 -46.9488   3.0779  11.7754  13.3144  14.7080
    15.0317  15.0317  15.7622  22.6038  23.6755  23.6755  24.7312

          k = 0.0000 0.0000 0.2425 (  2881 PWs)   bands (ev):

   -86.6336 -47.1055 -46.9487 -46.9487   3.7815   9.8513  13.4047  14.6696
    14.8868  14.8868  15.7699  24.4676  24.5889  24.5889  25.6172

          k = 0.0000 0.0000 0.3637 (  2861 PWs)   bands (ev):

   -86.6335 -47.1068 -46.9486 -46.9486   4.6764   8.1856  13.4796  14.7201
    14.7777  14.7777  15.7761  24.2531  25.6928  25.6928  28.0656

          k = 0.0000 0.1587 0.0000 (  2888 PWs)   bands (ev):

   -86.6322 -47.1014 -46.9657 -46.9474   3.2895  12.8791  13.2887  13.9228
    15.1368  15.5623  16.4143  19.7968  21.2261  23.8545  27.0435

          k = 0.0000 0.1587 0.1212 (  2883 PWs)   bands (ev):

   -86.6322 -47.1021 -46.9657 -46.9474   3.5328  12.0252  13.3313  14.0431
    15.0725  15.5700  15.8385  20.0497  22.8472  24.1673  26.9677

          k = 0.0000 0.1587 0.2425 (  2870 PWs)   bands (ev):

   -86.6321 -47.1038 -46.9656 -46.9473   4.2170  10.2241  13.4624  14.2093
    14.9369  15.2044  15.5849  20.6702  25.0040  25.7566  26.8418

          k = 0.0000 0.1587 0.3637 (  2862 PWs)   bands (ev):

   -86.6321 -47.1051 -46.9655 -46.9473   5.0736   8.6425  13.5881  14.3442
    14.8349  14.8506  15.5956  21.2808  25.9428  25.9712  27.0954

          k = 0.0000 0.3175 0.0000 (  2904 PWs)   bands (ev):

   -86.6288 -47.0977 -47.0036 -46.9444   4.6463  12.3608  13.1839  13.4062
    15.1639  15.2206  17.0094  18.2412  21.5746  25.2689  27.2295

          k = 0.0000 0.3175 0.1212 (  2886 PWs)   bands (ev):

   -86.6288 -47.0984 -47.0035 -46.9443   4.8707  12.4097  12.5425  13.6792
    15.1470  15.1958  16.7324  17.4853  23.4082  25.5119  25.5483

          k = 0.0000 0.3175 0.2425 (  2888 PWs)   bands (ev):

   -86.6288 -47.1000 -47.0033 -46.9442   5.4905  11.1781  12.7437  13.8199
    15.0481  15.2049  15.5876  17.8638  23.1909  26.1303  26.7350

          k = 0.0000 0.3175 0.3637 (  2877 PWs)   bands (ev):

   -86.6287 -47.1012 -47.0032 -46.9442   6.2250   9.9361  13.0355  13.7994
    14.9652  15.0293  15.2192  18.4449  21.7773  26.7520  28.2544

          k = 0.0000 0.4762 0.0000 (  2880 PWs)   bands (ev):

   -86.6261 -47.0948 -47.0338 -46.9419   6.8063   9.7024  12.7988  13.7237
    14.8771  15.2886  16.6841  20.5679  22.0914  23.6063  27.4712

          k = 0.0000 0.4762 0.1212 (  2878 PWs)   bands (ev):

   -86.6261 -47.0955 -47.0337 -46.9418   6.9853   9.8633  12.7014  13.7201
    14.8893  15.2448  16.5269  18.9255  21.5953  24.8700  27.4257

          k = 0.0000 0.4762 0.2425 (  2874 PWs)   bands (ev):

   -86.6261 -47.0970 -47.0336 -46.9418   7.4449  10.3145  12.3950  13.6424
    14.9170  15.1484  15.8462  17.6712  19.8418  27.6358  27.7338

          k = 0.0000 0.4762 0.3637 (  2876 PWs)   bands (ev):

   -86.6260 -47.0981 -47.0334 -46.9417   7.8994  10.9409  11.8580  13.4285
    14.9401  15.0728  15.1795  17.3076  18.8372  27.7755  29.7322

          k = 0.1587 0.1587 0.0000 (  2891 PWs)   bands (ev):

   -86.6307 -47.0998 -46.9646 -46.9639   3.7454  13.0440  13.3668  13.7518
    14.8510  15.3307  17.2483  19.5005  21.1635  21.5425  30.2531

          k = 0.1587 0.1587 0.1212 (  2880 PWs)   bands (ev):

   -86.6307 -47.1005 -46.9646 -46.9638   3.9829  12.2451  13.4160  13.9554
    14.7237  15.3400  16.4687  19.7688  21.4837  23.2230  29.5357

          k = 0.1587 0.1587 0.2425 (  2875 PWs)   bands (ev):

   -86.6306 -47.1021 -46.9645 -46.9637   4.6479  10.5779  13.5498  14.2651
    14.4396  15.3486  15.6468  20.4184  22.0946  26.5641  27.7374

          k = 0.1587 0.1587 0.3637 (  2869 PWs)   bands (ev):

   -86.6306 -47.1034 -46.9644 -46.9637   5.4679   9.0838  13.7195  14.1689
    14.6343  15.0600  15.4043  21.0410  22.7844  26.4429  26.6739

          k = 0.1587 0.3175 0.0000 (  2876 PWs)   bands (ev):

   -86.6274 -47.0961 -47.0019 -46.9610   5.0863  12.5797  13.2952  13.5430
    14.8150  14.9660  17.1353  18.8924  21.6336  22.2303  27.5196

          k = 0.1587 0.3175 0.1212 (  2889 PWs)   bands (ev):

   -86.6273 -47.0968 -47.0019 -46.9609   5.3050  12.6342  12.6899  13.8287
    14.6994  14.9969  17.2012  17.7353  22.0094  24.0510  25.8909

          k = 0.1587 0.3175 0.2425 (  2887 PWs)   bands (ev):

   -86.6273 -47.0984 -47.0017 -46.9608   5.9062  11.4646  12.8641  14.0294
    14.5589  15.0413  16.1092  18.0183  22.4758  23.6941  27.4124

          k = 0.1587 0.3175 0.3637 (  2880 PWs)   bands (ev):

   -86.6272 -47.0996 -47.0016 -46.9608   6.6099  10.3093  13.0289  14.0138
    14.7762  15.0705  15.2963  18.6370  22.2093  22.9460  27.9008

          k = 0.1587 0.4762 0.0000 (  2886 PWs)   bands (ev):

   -86.6247 -47.0932 -47.0321 -46.9584   7.2096  10.0722  12.9650  13.9265
    14.6371  14.9088  16.6586  21.0999  22.3923  23.9583  24.1495

          k = 0.1587 0.4762 0.1212 (  2881 PWs)   bands (ev):

   -86.6246 -47.0939 -47.0320 -46.9583   7.3828  10.2277  12.7901  13.9670
    14.7289  14.8543  16.5992  19.3621  22.1475  23.5103  25.5632

          k = 0.1587 0.4762 0.2425 (  2882 PWs)   bands (ev):

   -86.6246 -47.0953 -47.0318 -46.9582   7.8283  10.6484  12.3911  13.9171
    14.7361  15.0245  16.2214  17.8157  20.2161  23.8876  27.3786

          k = 0.1587 0.4762 0.3637 (  2880 PWs)   bands (ev):

   -86.6246 -47.0965 -47.0317 -46.9582   8.2715  11.1640  11.9290  13.6678
    14.9325  15.2548  15.4570  17.3276  19.0378  24.2042  28.0385

          k = 0.3175 0.3175 0.0000 (  2877 PWs)   bands (ev):

   -86.6240 -47.0925 -46.9989 -46.9977   6.3729  12.8808  13.3976  13.4629
    14.2863  14.7924  16.9470  19.5011  20.2846  22.8214  26.5677

          k = 0.3175 0.3175 0.1212 (  2886 PWs)   bands (ev):

   -86.6240 -47.0932 -46.9988 -46.9976   6.5724  12.7161  13.1982  13.5198
    14.3983  14.8348  17.2754  18.7218  19.4925  24.6216  26.5759

          k = 0.3175 0.3175 0.2425 (  2884 PWs)   bands (ev):

   -86.6240 -47.0947 -46.9987 -46.9975   7.1122  12.0190  12.8810  13.9580
    14.5359  14.9149  16.9477  18.1457  19.4516  24.5664  25.0544

          k = 0.3175 0.3175 0.3637 (  2880 PWs)   bands (ev):

   -86.6239 -47.0959 -46.9985 -46.9974   7.7182  11.2084  12.6861  14.6024
    14.6885  14.9824  15.6894  19.1818  19.3924  22.7363  24.1813

          k = 0.3175 0.4762 0.0000 (  2887 PWs)   bands (ev):

   -86.6214 -47.0896 -47.0281 -46.9953   8.3569  11.0925  13.3672  13.7789
    14.2397  14.5652  16.5234  20.2373  21.9433  22.7911  24.8144

          k = 0.3175 0.4762 0.1212 (  2888 PWs)   bands (ev):

   -86.6213 -47.0903 -47.0280 -46.9953   8.5127  11.2045  12.8584  14.0503
    14.4569  14.7209  16.6001  20.0900  20.4405  22.9574  23.5196

          k = 0.3175 0.4762 0.2425 (  2897 PWs)   bands (ev):

   -86.6213 -47.0917 -47.0279 -46.9952   8.9137  11.4329  12.3031  14.2192
    14.7109  15.3127  16.7274  18.3008  20.0126  21.4632  23.3868

          k = 0.3175 0.4762 0.3637 (  2886 PWs)   bands (ev):

   -86.6213 -47.0929 -47.0277 -46.9951   9.3174  11.5702  11.9256  14.6379
    14.9967  15.7587  16.2883  17.3104  19.4916  20.6264  23.7723

          k = 0.4762 0.4762 0.0000 (  2922 PWs)   bands (ev):

   -86.6187 -47.0868 -47.0250 -47.0248   9.9214  12.1906  13.0299  13.7023
    13.8324  14.2940  16.3596  18.7750  20.3213  22.4290  26.5302

          k = 0.4762 0.4762 0.1212 (  2906 PWs)   bands (ev):

   -86.6187 -47.0874 -47.0250 -47.0247  10.0593  12.1224  12.4842  13.6969
    14.5991  14.8015  16.4184  18.4457  20.1756  21.7349  24.7708

          k = 0.4762 0.4762 0.2425 (  2900 PWs)   bands (ev):

   -86.6186 -47.0888 -47.0248 -47.0246  10.3993  11.9249  11.9252  14.2546
    15.5900  15.6360  16.8263  17.6021  19.3685  20.8888  22.5480

          k = 0.4762 0.4762 0.3637 (  2893 PWs)   bands (ev):

   -86.6186 -47.0899 -47.0247 -47.0245  10.7010  11.6329  11.8045  15.1561
    15.9316  16.2786  16.9566  17.9319  18.1555  20.2359  20.5979

     the Fermi energy is    17.2449 ev

!    total energy              =    -344.08168121 Ry
     estimated scf accuracy    <          1.0E-08 Ry
     smearing contrib. (-TS)   =       0.00010422 Ry
     internal energy E=F+TS    =    -344.08178543 Ry

     The total energy is F=E-TS. E is the sum of the following terms:
     one-electron contribution =    -220.70176388 Ry
     hartree contribution      =     124.30279844 Ry
     xc contribution           =     -46.21256664 Ry
     ewald contribution        =    -201.47025335 Ry

     convergence has been achieved in   8 iterations

     Forces acting on atoms (cartesian axes, Ry/au):

     atom    1 type  1   force =     0.00000000    0.00000000    0.00000000
     atom    2 type  2   force =     0.00000000    0.00000000    0.00000000

     Total force =     0.000000     Total SCF correction =     0.000000


     Computing stress (Cartesian axis) and pressure

          total   stress  (Ry/bohr**3)                   (kbar)     P=       72.38
   0.00064402   0.00000000   0.00000000           94.74        0.00        0.00
   0.00000000   0.00064402   0.00000000            0.00       94.74        0.00
   0.00000000   0.00000000   0.00018811            0.00        0.00       27.67


     Writing all to output data dir ./tmp/SiNi-relax.save/ :
     XML data file, charge density, pseudopotentials, collected wavefunctions

     init_run     :      2.34s CPU      2.40s WALL (       2 calls)
     electrons    :     64.49s CPU     66.91s WALL (       6 calls)
     update_pot   :      0.05s CPU      0.06s WALL (       4 calls)
     forces       :      1.36s CPU      1.41s WALL (       6 calls)
     stress       :      5.40s CPU      5.52s WALL (       6 calls)

     Called by init_run:
     wfcinit      :      1.48s CPU      1.52s WALL (       2 calls)
     potinit      :      0.21s CPU      0.22s WALL (       2 calls)
     hinit0       :      0.62s CPU      0.62s WALL (       2 calls)

     Called by electrons:
     c_bands      :     58.09s CPU     60.11s WALL (      38 calls)
     sum_band     :      5.95s CPU      6.30s WALL (      38 calls)
     v_of_rho     :      0.46s CPU      0.49s WALL (      42 calls)
     mix_rho      :      0.04s CPU      0.05s WALL (      38 calls)

     Called by c_bands:
     init_us_2    :      1.71s CPU      1.82s WALL (    3600 calls)
     cegterg      :     55.28s CPU     57.21s WALL (    1520 calls)

     Called by *egterg:
     cdiaghg      :      0.80s CPU      0.85s WALL (    5735 calls)
     h_psi        :     40.86s CPU     42.54s WALL (    6055 calls)
     g_psi        :      0.30s CPU      0.32s WALL (    4455 calls)

     Called by h_psi:
     h_psi:calbec :      5.25s CPU      5.38s WALL (    6055 calls)
     vloc_psi     :     30.41s CPU     31.88s WALL (    6055 calls)
                                        0.00s GPU  (    6055 calls)
     add_vuspsi   :      4.93s CPU      5.03s WALL (    6055 calls)

     General routines
     calbec       :      9.77s CPU      9.99s WALL (   10135 calls)
     fft          :      0.19s CPU      0.20s WALL (     570 calls)
     ffts         :      0.01s CPU      0.01s WALL (      38 calls)
     fftw         :     30.43s CPU     32.40s WALL (  155566 calls)


     PWSCF        :   1m13.73s CPU   1m16.43s WALL


   This run was terminated on:  20: 6:21   7Jan2026            

=------------------------------------------------------------------------------=
   JOB DONE.
=------------------------------------------------------------------------------=
