
     Program PWSCF v.7.5 starts on  7Jan2026 at 20:13:14 

     This program is part of the open-source Quantum ESPRESSO suite
     for quantum simulation of materials; please cite
         "P. Giannozzi et al., J. Phys.:Condens. Matter 21 395502 (2009);
         "P. Giannozzi et al., J. Phys.:Condens. Matter 29 465901 (2017);
         "P. Giannozzi et al., J. Chem. Phys. 152 154105 (2020);
          URL http://www.quantum-espresso.org", 
     in publications or presentations arising from this work. More details at
     http://www.quantum-espresso.org/quote

     Serial version
     923 MiB available memory on the printing compute node when the environment starts

     Waiting for input...
     Reading input from standard input

     Current dimensions of program PWSCF are:
     Max number of different atomic species (ntypx) = 10
     Max number of k-points (npk) =  40000
     Max angular momentum in pseudopotentials (lmaxx) =  4
     Message from routine setup:
     using ibrav=0 with symmetry is DISCOURAGED, use correct ibrav instead


     G-vector sticks info
     --------------------
     sticks:   dense  smooth     PW     G-vecs:    dense   smooth      PW
     Sum         821     821    241                23079    23079    3703

     Using Slab Decomposition



     bravais-lattice index     =            0
     lattice parameter (alat)  =       5.3733  a.u.
     unit-cell volume          =     148.0621 (a.u.)^3
     number of atoms/cell      =            2
     number of atomic types    =            2
     number of electrons       =        22.00
     number of Kohn-Sham states=           15
     kinetic-energy cutoff     =     110.0000  Ry
     charge density cutoff     =     440.0000  Ry
     scf convergence threshold =      1.0E-06
     mixing beta               =       0.7000
     number of iterations used =            8  plain     mixing
     energy convergence thresh.=      1.0E-04
     force convergence thresh. =      1.0E-03
     press convergence thresh. =      5.0E-01
     Exchange-correlation= PBE
                           (   1   4   3   4   0   0   0)
     nstep                     =           50


     celldm(1)=   5.373304  celldm(2)=   0.000000  celldm(3)=   0.000000
     celldm(4)=   0.000000  celldm(5)=   0.000000  celldm(6)=   0.000000

     crystal axes: (cart. coord. in units of alat)
               a(1) = (   0.900000   0.000000   0.000000 )  
               a(2) = (   0.000000   0.900000   0.000000 )  
               a(3) = (   0.000000   0.000000   1.178242 )  

     reciprocal axes: (cart. coord. in units 2 pi/alat)
               b(1) = (  1.111111  0.000000  0.000000 )  
               b(2) = (  0.000000  1.111111  0.000000 )  
               b(3) = (  0.000000  0.000000  0.848722 )  


     PseudoPot. # 1 for Si read from file:
     ./PSEUDO/Si.upf
     MD5 check sum: 02fab3f35e82123ef5bf1cb05d5b1a5e
     Pseudo is Norm-conserving + core correction, Zval =  4.0
     Generated using ONCVPSP code by D. R. Hamann
     Using radial grid of 1510 points,  6 beta functions with: 
                l(1) =   0
                l(2) =   0
                l(3) =   1
                l(4) =   1
                l(5) =   2
                l(6) =   2

     PseudoPot. # 2 for Ni read from file:
     ./PSEUDO/Ni.upf
     MD5 check sum: 2b0a79d100e227970886d6963e34175b
     Pseudo is Norm-conserving + core correction, Zval = 18.0
     Generated using ONCVPSP code by D. R. Hamann
     Using radial grid of 1372 points,  6 beta functions with: 
                l(1) =   0
                l(2) =   0
                l(3) =   1
                l(4) =   1
                l(5) =   2
                l(6) =   2

     atomic species   valence    mass     pseudopotential
     Si                4.00    28.08550     Si( 1.00)
     Ni               18.00    58.69340     Ni( 1.00)

     16 Sym. Ops., with inversion, found



   Cartesian axes

     site n.     atom                  positions (alat units)
         1        Si     tau(   1) = (   0.0000000   0.0000000   0.0000000  )
         2        Ni     tau(   2) = (   0.4500000   0.4500000   0.5891212  )

     number of k points=    40  Methfessel-Paxton smearing, width (Ry)=  0.0400
                       cart. coord. in units 2pi/alat
        k(    1) = (   0.0000000   0.0000000   0.0000000), wk =   0.0058309
        k(    2) = (   0.0000000   0.0000000   0.1212460), wk =   0.0116618
        k(    3) = (   0.0000000   0.0000000   0.2424919), wk =   0.0116618
        k(    4) = (   0.0000000   0.0000000   0.3637379), wk =   0.0116618
        k(    5) = (   0.0000000   0.1587302   0.0000000), wk =   0.0233236
        k(    6) = (   0.0000000   0.1587302   0.1212460), wk =   0.0466472
        k(    7) = (   0.0000000   0.1587302   0.2424919), wk =   0.0466472
        k(    8) = (   0.0000000   0.1587302   0.3637379), wk =   0.0466472
        k(    9) = (   0.0000000   0.3174603   0.0000000), wk =   0.0233236
        k(   10) = (   0.0000000   0.3174603   0.1212460), wk =   0.0466472
        k(   11) = (   0.0000000   0.3174603   0.2424919), wk =   0.0466472
        k(   12) = (   0.0000000   0.3174603   0.3637379), wk =   0.0466472
        k(   13) = (   0.0000000   0.4761905   0.0000000), wk =   0.0233236
        k(   14) = (   0.0000000   0.4761905   0.1212460), wk =   0.0466472
        k(   15) = (   0.0000000   0.4761905   0.2424919), wk =   0.0466472
        k(   16) = (   0.0000000   0.4761905   0.3637379), wk =   0.0466472
        k(   17) = (   0.1587302   0.1587302   0.0000000), wk =   0.0233236
        k(   18) = (   0.1587302   0.1587302   0.1212460), wk =   0.0466472
        k(   19) = (   0.1587302   0.1587302   0.2424919), wk =   0.0466472
        k(   20) = (   0.1587302   0.1587302   0.3637379), wk =   0.0466472
        k(   21) = (   0.1587302   0.3174603   0.0000000), wk =   0.0466472
        k(   22) = (   0.1587302   0.3174603   0.1212460), wk =   0.0932945
        k(   23) = (   0.1587302   0.3174603   0.2424919), wk =   0.0932945
        k(   24) = (   0.1587302   0.3174603   0.3637379), wk =   0.0932945
        k(   25) = (   0.1587302   0.4761905   0.0000000), wk =   0.0466472
        k(   26) = (   0.1587302   0.4761905   0.1212460), wk =   0.0932945
        k(   27) = (   0.1587302   0.4761905   0.2424919), wk =   0.0932945
        k(   28) = (   0.1587302   0.4761905   0.3637379), wk =   0.0932945
        k(   29) = (   0.3174603   0.3174603   0.0000000), wk =   0.0233236
        k(   30) = (   0.3174603   0.3174603   0.1212460), wk =   0.0466472
        k(   31) = (   0.3174603   0.3174603   0.2424919), wk =   0.0466472
        k(   32) = (   0.3174603   0.3174603   0.3637379), wk =   0.0466472
        k(   33) = (   0.3174603   0.4761905   0.0000000), wk =   0.0466472
        k(   34) = (   0.3174603   0.4761905   0.1212460), wk =   0.0932945
        k(   35) = (   0.3174603   0.4761905   0.2424919), wk =   0.0932945
        k(   36) = (   0.3174603   0.4761905   0.3637379), wk =   0.0932945
        k(   37) = (   0.4761905   0.4761905   0.0000000), wk =   0.0233236
        k(   38) = (   0.4761905   0.4761905   0.1212460), wk =   0.0466472
        k(   39) = (   0.4761905   0.4761905   0.2424919), wk =   0.0466472
        k(   40) = (   0.4761905   0.4761905   0.3637379), wk =   0.0466472

     Dense  grid:    23079 G-vectors     FFT dimensions: (  36,  36,  45)

     Estimated max dynamical RAM per process >      52.39 MB

     Initial potential from superposition of free atoms

     starting charge      21.9992, renormalised to      22.0000
     Starting wfcs are   14 randomized atomic wfcs +    1 random wfcs

     total cpu time spent up to now is        1.7 secs

     Self-consistent Calculation

     iteration #  1     ecut=   110.00 Ry     beta= 0.70
     Davidson diagonalization with overlap
     ethr =  1.00E-02,  avg # of iterations =  4.0

     Threshold (ethr) on eigenvalues was too large:
     Diagonalizing with lowered threshold

     Davidson diagonalization with overlap
     ethr =  8.93E-04,  avg # of iterations =  1.1

     total cpu time spent up to now is        5.1 secs

     total energy              =    -343.96075019 Ry
     estimated scf accuracy    <       0.19059865 Ry

     iteration #  2     ecut=   110.00 Ry     beta= 0.70
     Davidson diagonalization with overlap
     ethr =  8.66E-04,  avg # of iterations =  2.9

     total cpu time spent up to now is        7.2 secs

     total energy              =    -343.74624857 Ry
     estimated scf accuracy    <       2.64264840 Ry

     iteration #  3     ecut=   110.00 Ry     beta= 0.70
     Davidson diagonalization with overlap
     ethr =  8.66E-04,  avg # of iterations =  2.4

     total cpu time spent up to now is        9.1 secs

     total energy              =    -344.08079623 Ry
     estimated scf accuracy    <       0.00572360 Ry

     iteration #  4     ecut=   110.00 Ry     beta= 0.70
     Davidson diagonalization with overlap
     ethr =  2.60E-05,  avg # of iterations =  2.2

     total cpu time spent up to now is       10.7 secs

     total energy              =    -344.08161263 Ry
     estimated scf accuracy    <       0.00067111 Ry

     iteration #  5     ecut=   110.00 Ry     beta= 0.70
     Davidson diagonalization with overlap
     ethr =  3.05E-06,  avg # of iterations =  2.2

     total cpu time spent up to now is       12.2 secs

     total energy              =    -344.08167094 Ry
     estimated scf accuracy    <       0.00004276 Ry

     iteration #  6     ecut=   110.00 Ry     beta= 0.70
     Davidson diagonalization with overlap
     ethr =  1.94E-07,  avg # of iterations =  2.1

     total cpu time spent up to now is       13.8 secs

     total energy              =    -344.08168070 Ry
     estimated scf accuracy    <       0.00000566 Ry

     iteration #  7     ecut=   110.00 Ry     beta= 0.70
     Davidson diagonalization with overlap
     ethr =  2.57E-08,  avg # of iterations =  1.4

     total cpu time spent up to now is       15.2 secs

     End of self-consistent calculation

          k = 0.0000 0.0000 0.0000 (  2873 PWs)   bands (ev):

   -86.6314 -47.1013 -46.9466 -46.9466   2.8288  12.6810  13.2765  14.8922
    15.1012  15.1012  15.7605  21.1090  23.3371  23.3371  24.8469

          k = 0.0000 0.0000 0.1212 (  2881 PWs)   bands (ev):

   -86.6314 -47.1020 -46.9466 -46.9466   3.0778  11.7758  13.3158  14.7086
    15.0330  15.0330  15.7639  22.6041  23.6753  23.6753  24.7311

          k = 0.0000 0.0000 0.2425 (  2881 PWs)   bands (ev):

   -86.6313 -47.1037 -46.9465 -46.9465   3.7813   9.8514  13.4062  14.6706
    14.8880  14.8880  15.7717  24.4674  24.5887  24.5887  25.6173

          k = 0.0000 0.0000 0.3637 (  2861 PWs)   bands (ev):

   -86.6313 -47.1051 -46.9464 -46.9464   4.6762   8.1858  13.4810  14.7212
    14.7789  14.7789  15.7779  24.2528  25.6927  25.6927  28.0654

          k = 0.0000 0.1587 0.0000 (  2888 PWs)   bands (ev):

   -86.6299 -47.0997 -46.9635 -46.9452   3.2894  12.8799  13.2900  13.9234
    15.1381  15.5640  16.4148  19.7969  21.2265  23.8543  27.0434

          k = 0.0000 0.1587 0.1212 (  2883 PWs)   bands (ev):

   -86.6299 -47.1004 -46.9635 -46.9452   3.5327  12.0256  13.3326  14.0440
    15.0739  15.5717  15.8394  20.0497  22.8475  24.1671  26.9676

          k = 0.0000 0.1587 0.2425 (  2870 PWs)   bands (ev):

   -86.6298 -47.1020 -46.9633 -46.9451   4.2169  10.2243  13.4638  14.2104
    14.9381  15.2055  15.5866  20.6703  25.0038  25.7566  26.8418

          k = 0.0000 0.1587 0.3637 (  2862 PWs)   bands (ev):

   -86.6298 -47.1033 -46.9633 -46.9450   5.0734   8.6427  13.5895  14.3453
    14.8362  14.8517  15.5974  21.2808  25.9430  25.9710  27.0953

          k = 0.0000 0.3175 0.0000 (  2904 PWs)   bands (ev):

   -86.6266 -47.0960 -47.0014 -46.9422   4.6462  12.3613  13.1847  13.4074
    15.1655  15.2219  17.0102  18.2415  21.5749  25.2687  27.2295

          k = 0.0000 0.3175 0.1212 (  2886 PWs)   bands (ev):

   -86.6265 -47.0967 -47.0013 -46.9421   4.8705  12.4103  12.5430  13.6804
    15.1485  15.1973  16.7332  17.4860  23.4083  25.5117  25.5484

          k = 0.0000 0.3175 0.2425 (  2888 PWs)   bands (ev):

   -86.6265 -47.0982 -47.0011 -46.9420   5.4903  11.1783  12.7442  13.8212
    15.0494  15.2065  15.5886  17.8645  23.1912  26.1301  26.7350

          k = 0.0000 0.3175 0.3637 (  2877 PWs)   bands (ev):

   -86.6264 -47.0995 -47.0010 -46.9420   6.2247   9.9362  13.0360  13.8007
    14.9665  15.0305  15.2209  18.4455  21.7777  26.7518  28.2541

          k = 0.0000 0.4762 0.0000 (  2880 PWs)   bands (ev):

   -86.6239 -47.0931 -47.0316 -46.9397   6.8062   9.7024  12.7996  13.7250
    14.8787  15.2900  16.6855  20.5681  22.0914  23.6064  27.3191

          k = 0.0000 0.4762 0.1212 (  2878 PWs)   bands (ev):

   -86.6239 -47.0937 -47.0315 -46.9396   6.9851   9.8633  12.7021  13.7213
    14.8908  15.2461  16.5282  18.9259  21.5955  24.8700  27.4255

          k = 0.0000 0.4762 0.2425 (  2874 PWs)   bands (ev):

   -86.6238 -47.0952 -47.0313 -46.9395   7.4447  10.3145  12.3953  13.6435
    14.9186  15.1498  15.8473  17.6721  19.8423  27.6356  27.7336

          k = 0.0000 0.4762 0.3637 (  2876 PWs)   bands (ev):

   -86.6238 -47.0964 -47.0312 -46.9395   7.8992  10.9409  11.8582  13.4294
    14.9417  15.0741  15.1807  17.3086  18.8381  27.7751  29.7319

          k = 0.1587 0.1587 0.0000 (  2891 PWs)   bands (ev):

   -86.6284 -47.0980 -46.9624 -46.9617   3.7452  13.0449  13.3680  13.7525
    14.8523  15.3323  17.2489  19.5006  21.1638  21.5426  30.2529

          k = 0.1587 0.1587 0.1212 (  2880 PWs)   bands (ev):

   -86.6284 -47.0988 -46.9624 -46.9616   3.9828  12.2455  13.4172  13.9563
    14.7249  15.3417  16.4696  19.7689  21.4837  23.2231  29.5360

          k = 0.1587 0.1587 0.2425 (  2875 PWs)   bands (ev):

   -86.6284 -47.1004 -46.9623 -46.9615   4.6478  10.5781  13.5511  14.2662
    14.4407  15.3502  15.6479  20.4186  22.0946  26.5641  27.7376

          k = 0.1587 0.1587 0.3637 (  2869 PWs)   bands (ev):

   -86.6283 -47.1017 -46.9622 -46.9615   5.4677   9.0839  13.7209  14.1699
    14.6354  15.0612  15.4060  21.0411  22.7843  26.4432  26.6740

          k = 0.1587 0.3175 0.0000 (  2876 PWs)   bands (ev):

   -86.6251 -47.0944 -46.9997 -46.9588   5.0862  12.5802  13.2960  13.5441
    14.8163  14.9675  17.1361  18.8928  21.6339  22.2304  27.5196

          k = 0.1587 0.3175 0.1212 (  2889 PWs)   bands (ev):

   -86.6251 -47.0951 -46.9997 -46.9587   5.3048  12.6347  12.6905  13.8299
    14.7007  14.9985  17.2020  17.7360  22.0094  24.0511  25.8911

          k = 0.1587 0.3175 0.2425 (  2887 PWs)   bands (ev):

   -86.6250 -47.0966 -46.9995 -46.9586   5.9061  11.4649  12.8646  14.0307
    14.5600  15.0428  16.1103  18.0190  22.4757  23.6943  27.4124

          k = 0.1587 0.3175 0.3637 (  2880 PWs)   bands (ev):

   -86.6250 -47.0978 -46.9994 -46.9586   6.6097  10.3094  13.0294  14.0152
    14.7774  15.0720  15.2974  18.6376  22.2097  22.9458  27.9011

          k = 0.1587 0.4762 0.0000 (  2886 PWs)   bands (ev):

   -86.6224 -47.0915 -47.0299 -46.9562   7.2095  10.0722  12.9658  13.9277
    14.6386  14.9101  16.6600  21.1002  22.3924  23.9584  24.1494

          k = 0.1587 0.4762 0.1212 (  2881 PWs)   bands (ev):

   -86.6224 -47.0921 -47.0298 -46.9561   7.3827  10.2277  12.7908  13.9683
    14.7303  14.8555  16.6006  19.3626  22.1477  23.5102  25.5632

          k = 0.1587 0.4762 0.2425 (  2882 PWs)   bands (ev):

   -86.6223 -47.0936 -47.0296 -46.9560   7.8281  10.6484  12.3916  13.9183
    14.7373  15.0259  16.2226  17.8165  20.2166  23.8874  27.3785

          k = 0.1587 0.4762 0.3637 (  2880 PWs)   bands (ev):

   -86.6223 -47.0948 -47.0295 -46.9559   8.2714  11.1641  11.9292  13.6689
    14.9337  15.2562  15.4582  17.3285  19.0386  24.2040  28.0385

          k = 0.3175 0.3175 0.0000 (  2877 PWs)   bands (ev):

   -86.6218 -47.0908 -46.9967 -46.9955   6.3728  12.8816  13.3982  13.4638
    14.2875  14.7937  16.9478  19.5015  20.2849  22.8216  26.5678

          k = 0.3175 0.3175 0.1212 (  2886 PWs)   bands (ev):

   -86.6217 -47.0915 -46.9966 -46.9954   6.5723  12.7169  13.1988  13.5206
    14.3996  14.8361  17.2762  18.7223  19.4929  24.6215  26.5758

          k = 0.3175 0.3175 0.2425 (  2884 PWs)   bands (ev):

   -86.6217 -47.0929 -46.9964 -46.9953   7.1121  12.0195  12.8816  13.9589
    14.5373  14.9163  16.9486  18.1463  19.4517  24.5667  25.0544

          k = 0.3175 0.3175 0.3637 (  2880 PWs)   bands (ev):

   -86.6217 -47.0941 -46.9963 -46.9952   7.7180  11.2087  12.6867  14.6038
    14.6896  14.9838  15.6905  19.1823  19.3924  22.7367  24.1817

          k = 0.3175 0.4762 0.0000 (  2887 PWs)   bands (ev):

   -86.6191 -47.0879 -47.0259 -46.9931   8.3568  11.0926  13.3682  13.7797
    14.2408  14.5664  16.5248  20.2377  21.9435  22.7911  24.8146

          k = 0.3175 0.4762 0.1212 (  2888 PWs)   bands (ev):

   -86.6191 -47.0885 -47.0258 -46.9931   8.5126  11.2047  12.8592  14.0513
    14.4581  14.7221  16.6015  20.0901  20.4409  22.9574  23.5198

          k = 0.3175 0.4762 0.2425 (  2897 PWs)   bands (ev):

   -86.6190 -47.0900 -47.0257 -46.9930   8.9137  11.4331  12.3038  14.2202
    14.7122  15.3139  16.7286  18.3013  20.0126  21.4637  23.3868

          k = 0.3175 0.4762 0.3637 (  2886 PWs)   bands (ev):

   -86.6190 -47.0911 -47.0255 -46.9929   9.3174  11.5704  11.9263  14.6391
    14.9979  15.7599  16.2891  17.3111  19.4921  20.6265  23.7722

          k = 0.4762 0.4762 0.0000 (  2922 PWs)   bands (ev):

   -86.6165 -47.0850 -47.0228 -47.0226   9.9215  12.1909  13.0298  13.7033
    13.8335  14.2948  16.3613  18.7757  20.3218  22.4288  26.5303

          k = 0.4762 0.4762 0.1212 (  2906 PWs)   bands (ev):

   -86.6164 -47.0857 -47.0227 -47.0225  10.0595  12.1229  12.4844  13.6978
    14.5999  14.8024  16.4200  18.4462  20.1759  21.7352  24.7709

          k = 0.4762 0.4762 0.2425 (  2900 PWs)   bands (ev):

   -86.6164 -47.0871 -47.0226 -47.0224  10.3995  11.9255  11.9256  14.2555
    15.5912  15.6369  16.8274  17.6021  19.3687  20.8892  22.5483

          k = 0.4762 0.4762 0.3637 (  2893 PWs)   bands (ev):

   -86.6163 -47.0882 -47.0225 -47.0223  10.7011  11.6333  11.8053  15.1573
    15.9331  16.2792  16.9564  17.9322  18.1561  20.2363  20.5981

     the Fermi energy is    17.2457 ev

!    total energy              =    -344.08168092 Ry
     estimated scf accuracy    <       0.00000033 Ry
     smearing contrib. (-TS)   =       0.00010447 Ry
     internal energy E=F+TS    =    -344.08178539 Ry

     The total energy is F=E-TS. E is the sum of the following terms:
     one-electron contribution =    -220.69040519 Ry
     hartree contribution      =     124.29007587 Ry
     xc contribution           =     -46.21120272 Ry
     ewald contribution        =    -201.47025335 Ry

     convergence has been achieved in   7 iterations

     Forces acting on atoms (cartesian axes, Ry/au):

     atom    1 type  1   force =     0.00000000    0.00000000    0.00000000
     atom    2 type  2   force =     0.00000000    0.00000000    0.00000000

     Total force =     0.000000     Total SCF correction =     0.000000


     Computing stress (Cartesian axis) and pressure

          total   stress  (Ry/bohr**3)                   (kbar)     P=       67.22
   0.00061082   0.00000000   0.00000000           89.86        0.00        0.00
   0.00000000   0.00061082   0.00000000            0.00       89.86        0.00
   0.00000000   0.00000000   0.00014921            0.00        0.00       21.95


     BFGS Geometry Optimization
     Energy error            =      8.2E-05 Ry
     Gradient error          =      0.0E+00 Ry/Bohr
     Cell gradient error     =      2.2E+01 kbar

     number of scf cycles    =   1
     number of bfgs steps    =   0

     enthalpy           new  =    -344.0816809222 Ry

     new trust radius        =       0.0090779778 bohr
     new conv_thr            =       0.0000010000 Ry

     new unit-cell volume =    148.61438 a.u.^3 (    22.02238 Ang^3 )
     density =      6.54333 g/cm^3

CELL_PARAMETERS (alat=  5.37330365)
   0.900000000   0.000000000   0.000000000
   0.000000000   0.900000000   0.000000000
   0.000000000   0.000000000   1.182637577

ATOMIC_POSITIONS (crystal)
Si               0.0000000000        0.0000000000        0.0000000000
Ni               0.5000000000        0.5000000000        0.5000000000



     Writing config-only to output data dir ./tmp/SiNi-relax.save/ :
     XML data file
     NEW-OLD atomic charge density approx. for the potential
     New effective cutoffs (rho, wfc):  439.88  109.96

     total cpu time spent up to now is       16.5 secs

     Self-consistent Calculation

     iteration #  1     ecut=   110.00 Ry     beta= 0.70
     Davidson diagonalization with overlap
     ethr =  1.00E-06,  avg # of iterations =  3.5

     total cpu time spent up to now is       19.0 secs

     total energy              =    -344.08173617 Ry
     estimated scf accuracy    <       0.00004035 Ry

     iteration #  2     ecut=   110.00 Ry     beta= 0.70
     Davidson diagonalization with overlap
     ethr =  1.83E-07,  avg # of iterations =  2.5

     total cpu time spent up to now is       20.9 secs

     total energy              =    -344.08170594 Ry
     estimated scf accuracy    <       0.00045755 Ry

     iteration #  3     ecut=   110.00 Ry     beta= 0.70
     Davidson diagonalization with overlap
     ethr =  1.83E-07,  avg # of iterations =  2.2

     total cpu time spent up to now is       22.7 secs

     End of self-consistent calculation

          k = 0.0000 0.0000 0.0000 (  2873 PWs)   bands (ev):

   -86.6977 -47.1664 -47.0124 -47.0124   2.7827  12.6193  13.2211  14.7677
    15.0396  15.0396  15.6994  20.9641  23.2895  23.2895  24.7718

          k = 0.0000 0.0000 0.1208 (  2881 PWs)   bands (ev):

   -86.6977 -47.1671 -47.0124 -47.0124   3.0291  11.7009  13.2594  14.6093
    14.9731  14.9731  15.7027  22.4472  23.6235  23.6235  24.6577

          k = 0.0000 0.0000 0.2416 (  2881 PWs)   bands (ev):

   -86.6976 -47.1687 -47.0123 -47.0123   3.7248   9.7784  13.3475  14.5872
    14.8314  14.8314  15.7101  24.3980  24.5254  24.5254  25.4508

          k = 0.0000 0.0000 0.3624 (  2861 PWs)   bands (ev):

   -86.6976 -47.1700 -47.0123 -47.0123   4.6064   8.1276  13.4205  14.6406
    14.7247  14.7247  15.7161  24.1868  25.6111  25.6111  27.9273

          k = 0.0000 0.1587 0.0000 (  2888 PWs)   bands (ev):

   -86.6962 -47.1648 -47.0293 -47.0111   3.2431  12.8206  13.2362  13.8384
    15.0764  15.5042  16.3131  19.7340  21.0826  23.8044  26.9730

          k = 0.0000 0.1587 0.1208 (  2883 PWs)   bands (ev):

   -86.6962 -47.1655 -47.0293 -47.0110   3.4839  11.9522  13.2784  13.9716
    15.0137  15.5116  15.7522  19.9834  22.6925  24.1133  26.8959

          k = 0.0000 0.1587 0.2416 (  2870 PWs)   bands (ev):

   -86.6961 -47.1670 -47.0292 -47.0109   4.1604  10.1526  13.4069  14.1460
    14.8813  15.1297  15.5261  20.5957  24.9390  25.6223  26.7408

          k = 0.0000 0.1587 0.3624 (  2862 PWs)   bands (ev):

   -86.6961 -47.1683 -47.0291 -47.0109   5.0042   8.5849  13.5295  14.2893
    14.7743  14.7816  15.5365  21.1969  25.8814  25.8900  27.0062

          k = 0.0000 0.3175 0.0000 (  2904 PWs)   bands (ev):

   -86.6929 -47.1611 -47.0671 -47.0080   4.5997  12.3175  13.1095  13.3479
    15.1079  15.1599  16.9377  18.1282  21.4387  25.2140  27.1060

          k = 0.0000 0.3175 0.1208 (  2886 PWs)   bands (ev):

   -86.6928 -47.1618 -47.0670 -47.0079   4.8217  12.3528  12.4844  13.6168
    15.0896  15.1377  16.6463  17.3971  23.2696  25.4342  25.4535

          k = 0.0000 0.3175 0.2416 (  2888 PWs)   bands (ev):

   -86.6928 -47.1632 -47.0669 -47.0079   5.4343  11.1114  12.6952  13.7583
    14.9920  15.1477  15.5062  17.7801  23.1068  26.0629  26.5900

          k = 0.0000 0.3175 0.3624 (  2877 PWs)   bands (ev):

   -86.6928 -47.1644 -47.0668 -47.0078   6.1578   9.8798  12.9829  13.7403
    14.9110  14.9529  15.1616  18.3523  21.7088  26.6740  28.1603

          k = 0.0000 0.4762 0.0000 (  2880 PWs)   bands (ev):

   -86.6902 -47.1582 -47.0973 -47.0055   6.7599   9.6576  12.7292  13.6648
    14.8224  15.2278  16.6161  20.4472  21.9722  23.4833  27.2576

          k = 0.0000 0.4762 0.1208 (  2878 PWs)   bands (ev):

   -86.6902 -47.1588 -47.0973 -47.0055   6.9368   9.8163  12.6348  13.6602
    14.8342  15.1851  16.4558  18.8184  21.4885  24.7366  27.3616

          k = 0.0000 0.4762 0.2416 (  2874 PWs)   bands (ev):

   -86.6901 -47.1602 -47.0971 -47.0054   7.3905  10.2617  12.3351  13.5818
    14.8612  15.0914  15.7674  17.5791  19.7539  27.5673  27.6041

          k = 0.0000 0.4762 0.3624 (  2876 PWs)   bands (ev):

   -86.6901 -47.1613 -47.0969 -47.0053   7.8381  10.8804  11.8030  13.3720
    14.8837  15.0178  15.1029  17.2131  18.7656  27.7044  29.6279

          k = 0.1587 0.1587 0.0000 (  2891 PWs)   bands (ev):

   -86.6947 -47.1631 -47.0282 -47.0275   3.6989  12.9876  13.3156  13.6699
    14.7906  15.2741  17.1441  19.4349  21.0820  21.4203  30.1928

          k = 0.1587 0.1587 0.1208 (  2880 PWs)   bands (ev):

   -86.6947 -47.1638 -47.0282 -47.0274   3.9340  12.1741  13.3641  13.8867
    14.6651  15.2830  16.3787  19.7000  21.4216  23.0650  29.4604

          k = 0.1587 0.1587 0.2416 (  2875 PWs)   bands (ev):

   -86.6947 -47.1653 -47.0281 -47.0273   4.5914  10.5080  13.4958  14.2005
    14.3847  15.2899  15.5723  20.3417  22.0238  26.3891  27.6638

          k = 0.1587 0.1587 0.3624 (  2869 PWs)   bands (ev):

   -86.6946 -47.1666 -47.0280 -47.0273   5.3991   9.0267  13.6619  14.1185
    14.5692  14.9910  15.3456  20.9555  22.7004  26.3800  26.6058

          k = 0.1587 0.3175 0.0000 (  2876 PWs)   bands (ev):

   -86.6914 -47.1595 -47.0655 -47.0246   5.0398  12.5359  13.2218  13.4879
    14.7535  14.9110  17.0634  18.7791  21.5434  22.1173  27.3970

          k = 0.1587 0.3175 0.1208 (  2889 PWs)   bands (ev):

   -86.6914 -47.1601 -47.0654 -47.0245   5.2561  12.5739  12.6367  13.7683
    14.6397  14.9411  17.1225  17.6392  21.9431  23.9014  25.7825

          k = 0.1587 0.3175 0.2416 (  2887 PWs)   bands (ev):

   -86.6913 -47.1616 -47.0653 -47.0244   5.8503  11.3998  12.8164  13.9686
    14.5002  14.9846  16.0280  17.9352  22.4026  23.6081  27.2501

          k = 0.1587 0.3175 0.3624 (  2880 PWs)   bands (ev):

   -86.6913 -47.1628 -47.0652 -47.0244   6.5435  10.2540  12.9792  13.9553
    14.7127  15.0130  15.2253  18.5450  22.1403  22.8636  27.8320

          k = 0.1587 0.4762 0.0000 (  2886 PWs)   bands (ev):

   -86.6887 -47.1566 -47.0956 -47.0220   7.1636  10.0277  12.8965  13.8696
    14.5822  14.8471  16.5907  20.9799  22.2917  23.8350  24.0583

          k = 0.1587 0.4762 0.1208 (  2881 PWs)   bands (ev):

   -86.6887 -47.1572 -47.0955 -47.0219   7.3348  10.1811  12.7259  13.9086
    14.6719  14.7941  16.5293  19.2551  22.0411  23.4345  25.4377

          k = 0.1587 0.4762 0.2416 (  2882 PWs)   bands (ev):

   -86.6886 -47.1586 -47.0953 -47.0218   7.7745  10.5963  12.3342  13.8580
    14.6764  14.9654  16.1459  17.7233  20.1276  23.8134  27.2949

          k = 0.1587 0.4762 0.3624 (  2880 PWs)   bands (ev):

   -86.6886 -47.1597 -47.0952 -47.0218   8.2111  11.1057  11.8775  13.6115
    14.8681  15.1963  15.3860  17.2346  18.9662  24.1245  27.9584

          k = 0.3175 0.3175 0.0000 (  2877 PWs)   bands (ev):

   -86.6881 -47.1559 -47.0624 -47.0612   6.3268  12.8352  13.3524  13.3926
    14.2254  14.7382  16.8762  19.4279  20.1677  22.6876  26.4966

          k = 0.3175 0.3175 0.1208 (  2886 PWs)   bands (ev):

   -86.6881 -47.1565 -47.0624 -47.0612   6.5241  12.6619  13.1521  13.4576
    14.3387  14.7799  17.2023  18.6170  19.4172  24.4915  26.4812

          k = 0.3175 0.3175 0.2416 (  2884 PWs)   bands (ev):

   -86.6880 -47.1579 -47.0622 -47.0611   7.0576  11.9614  12.8351  13.8983
    14.4769  14.8588  16.8592  18.0656  19.3722  24.4797  24.9642

          k = 0.3175 0.3175 0.3624 (  2880 PWs)   bands (ev):

   -86.6880 -47.1591 -47.0621 -47.0610   7.6546  11.1568  12.6408  14.5432
    14.6241  14.9237  15.6140  19.0885  19.3096  22.6685  24.1085

          k = 0.3175 0.4762 0.0000 (  2887 PWs)   bands (ev):

   -86.6854 -47.1530 -47.0916 -47.0589   8.3126  11.0485  13.3016  13.7285
    14.1778  14.5115  16.4560  20.1636  21.8248  22.7215  24.6852

          k = 0.3175 0.4762 0.1208 (  2888 PWs)   bands (ev):

   -86.6854 -47.1536 -47.0916 -47.0589   8.4666  11.1589  12.8021  13.9917
    14.3975  14.6638  16.5311  20.0026  20.3459  22.8886  23.4092

          k = 0.3175 0.4762 0.2416 (  2897 PWs)   bands (ev):

   -86.6853 -47.1550 -47.0914 -47.0587   8.8626  11.3840  12.2521  14.1593
    14.6531  15.2496  16.6529  18.2091  19.9343  21.3736  23.3108

          k = 0.3175 0.4762 0.3624 (  2886 PWs)   bands (ev):

   -86.6853 -47.1561 -47.0913 -47.0587   9.2601  11.5196  11.8792  14.5793
    14.9296  15.6929  16.2170  17.2227  19.4229  20.5386  23.6893

          k = 0.4762 0.4762 0.0000 (  2922 PWs)   bands (ev):

   -86.6828 -47.1502 -47.0886 -47.0883   9.8823  12.1452  12.9829  13.6395
    13.7710  14.2443  16.2948  18.6895  20.2534  22.3136  26.3946

          k = 0.4762 0.4762 0.1208 (  2906 PWs)   bands (ev):

   -86.6827 -47.1508 -47.0885 -47.0883  10.0185  12.0760  12.4362  13.6400
    14.5382  14.7438  16.3527  18.3585  20.1053  21.6338  24.6561

          k = 0.4762 0.4762 0.2416 (  2900 PWs)   bands (ev):

   -86.6827 -47.1521 -47.0884 -47.0881  10.3538  11.8790  11.8791  14.1950
    15.5282  15.5710  16.7554  17.5167  19.2924  20.8014  22.4533

          k = 0.4762 0.4762 0.3624 (  2893 PWs)   bands (ev):

   -86.6827 -47.1532 -47.0883 -47.0880  10.6506  11.5878  11.7606  15.0874
    15.8700  16.2017  16.8816  17.8633  18.0720  20.1583  20.5098

     the Fermi energy is    17.1605 ev

!    total energy              =    -344.08176341 Ry
     estimated scf accuracy    <       0.00000006 Ry
     smearing contrib. (-TS)   =       0.00004069 Ry
     internal energy E=F+TS    =    -344.08180410 Ry

     The total energy is F=E-TS. E is the sum of the following terms:
     one-electron contribution =    -221.26230240 Ry
     hartree contribution      =     124.53084908 Ry
     xc contribution           =     -46.20715330 Ry
     ewald contribution        =    -201.14319747 Ry

     convergence has been achieved in   3 iterations

     Forces acting on atoms (cartesian axes, Ry/au):

     atom    1 type  1   force =     0.00000000    0.00000000    0.00000000
     atom    2 type  2   force =     0.00000000    0.00000000    0.00000000

     Total force =     0.000000     Total SCF correction =     0.000000


     Computing stress (Cartesian axis) and pressure

          total   stress  (Ry/bohr**3)                   (kbar)     P=       63.89
   0.00059441   0.00000000   0.00000000           87.44        0.00        0.00
   0.00000000   0.00059441   0.00000000            0.00       87.44        0.00
   0.00000000   0.00000000   0.00011418            0.00        0.00       16.80

     Energy error            =      8.2E-05 Ry
     Gradient error          =      0.0E+00 Ry/Bohr
     Cell gradient error     =      1.7E+01 kbar

     number of scf cycles    =   2
     number of bfgs steps    =   1

     enthalpy           old  =    -344.0816809222 Ry
     enthalpy           new  =    -344.0817634136 Ry

     CASE: enthalpy          _new < enthalpy          _old

     new trust radius        =       0.0135916403 bohr
     new conv_thr            =       0.0000000100 Ry

     new unit-cell volume =    149.44284 a.u.^3 (    22.14514 Ang^3 )
     density =      6.50706 g/cm^3

CELL_PARAMETERS (alat=  5.37330365)
   0.900000000   0.000000000   0.000000000
   0.000000000   0.900000000   0.000000000
   0.000000000   0.000000000   1.189230275

ATOMIC_POSITIONS (crystal)
Si               0.0000000000        0.0000000000        0.0000000000
Ni               0.5000000000        0.5000000000        0.5000000000



     Writing config-only to output data dir ./tmp/SiNi-relax.save/ :
     XML data file
     NEW-OLD atomic charge density approx. for the potential
     New effective cutoffs (rho, wfc):  439.87  109.95

     total cpu time spent up to now is       23.9 secs

     Self-consistent Calculation

     iteration #  1     ecut=   110.00 Ry     beta= 0.70
     Davidson diagonalization with overlap
     ethr =  1.00E-06,  avg # of iterations =  4.2

     Threshold (ethr) on eigenvalues was too large:
     Diagonalizing with lowered threshold

     Davidson diagonalization with overlap
     ethr =  9.87E-08,  avg # of iterations =  1.1

     total cpu time spent up to now is       28.0 secs

     total energy              =    -344.08180225 Ry
     estimated scf accuracy    <       0.00002370 Ry

     iteration #  2     ecut=   110.00 Ry     beta= 0.70
     Davidson diagonalization with overlap
     ethr =  1.08E-07,  avg # of iterations =  2.6

     total cpu time spent up to now is       29.9 secs

     total energy              =    -344.08178452 Ry
     estimated scf accuracy    <       0.00025900 Ry

     iteration #  3     ecut=   110.00 Ry     beta= 0.70
     Davidson diagonalization with overlap
     ethr =  1.08E-07,  avg # of iterations =  2.2

     total cpu time spent up to now is       31.8 secs

     total energy              =    -344.08181705 Ry
     estimated scf accuracy    <       0.00000014 Ry

     iteration #  4     ecut=   110.00 Ry     beta= 0.70
     Davidson diagonalization with overlap
     ethr =  6.21E-10,  avg # of iterations =  3.6

     total cpu time spent up to now is       33.8 secs

     total energy              =    -344.08181712 Ry
     estimated scf accuracy    <       0.00000008 Ry

     iteration #  5     ecut=   110.00 Ry     beta= 0.70
     Davidson diagonalization with overlap
     ethr =  3.57E-10,  avg # of iterations =  1.4

     total cpu time spent up to now is       35.2 secs

     End of self-consistent calculation

          k = 0.0000 0.0000 0.0000 (  2873 PWs)   bands (ev):

   -86.7892 -47.2570 -47.1038 -47.1038   2.7138  12.5298  13.1417  14.5835
    14.9523  14.9523  15.6134  20.7504  23.2184  23.2184  24.6606

          k = 0.0000 0.0000 0.1201 (  2881 PWs)   bands (ev):

   -86.7892 -47.2577 -47.1038 -47.1038   2.9565  11.5900  13.1786  14.4646
    14.8881  14.8881  15.6166  22.2150  23.5464  23.5464  24.5488

          k = 0.0000 0.0000 0.2403 (  2881 PWs)   bands (ev):

   -86.7891 -47.2592 -47.1037 -47.1037   3.6405   9.6705  13.2636  14.4667
    14.7512  14.7512  15.6236  24.2947  24.4313  24.4313  25.2027

          k = 0.0000 0.0000 0.3604 (  2861 PWs)   bands (ev):

   -86.7891 -47.2604 -47.1036 -47.1036   4.5024   8.0416  13.3338  14.5244
    14.6479  14.6479  15.6293  24.0883  25.4901  25.4901  27.7196

          k = 0.0000 0.1587 0.0000 (  2888 PWs)   bands (ev):

   -86.7877 -47.2554 -47.1206 -47.1024   3.1741  12.7346  13.1591  13.7133
    14.9889  15.4200  16.1657  19.6409  20.8701  23.7300  26.8684

          k = 0.0000 0.1587 0.1201 (  2883 PWs)   bands (ev):

   -86.7877 -47.2561 -47.1206 -47.1024   3.4112  11.8439  13.2007  13.8666
    14.9285  15.4271  15.6266  19.8851  22.4628  24.0332  26.7896

          k = 0.0000 0.1587 0.2403 (  2870 PWs)   bands (ev):

   -86.7876 -47.2575 -47.1205 -47.1023   4.0762  10.0468  13.3255  14.0532
    14.8006  15.0211  15.4409  20.4853  24.8427  25.4145  26.5984

          k = 0.0000 0.1587 0.3604 (  2862 PWs)   bands (ev):

   -86.7876 -47.2587 -47.1204 -47.1023   4.9011   8.4995  13.4435  14.2089
    14.6635  14.7042  15.4508  21.0727  25.7698  25.7904  26.8725

          k = 0.0000 0.3175 0.0000 (  2904 PWs)   bands (ev):

   -86.7844 -47.2518 -47.1584 -47.0993   4.5304  12.2535  13.0004  13.2623
    15.0268  15.0721  16.8321  17.9621  21.2368  25.1325  26.9237

          k = 0.0000 0.3175 0.1201 (  2886 PWs)   bands (ev):

   -86.7843 -47.2524 -47.1583 -47.0993   4.7488  12.2645  12.4030  13.5255
    15.0061  15.0538  16.5189  17.2683  23.0627  25.2667  25.3670

          k = 0.0000 0.3175 0.2403 (  2888 PWs)   bands (ev):

   -86.7843 -47.2537 -47.1582 -47.0992   5.3508  11.0129  12.6239  13.6682
    14.9105  15.0648  15.3873  17.6567  22.9826  25.9630  26.3718

          k = 0.0000 0.3175 0.3604 (  2877 PWs)   bands (ev):

   -86.7842 -47.2548 -47.1581 -47.0992   6.0582   9.7965  12.9055  13.6536
    14.8324  14.8414  15.0782  18.2158  21.6077  26.5585  28.0191

          k = 0.0000 0.4762 0.0000 (  2880 PWs)   bands (ev):

   -86.7817 -47.2488 -47.1886 -47.0969   6.6909   9.5910  12.6275  13.5785
    14.7432  15.1397  16.5167  20.2692  21.7947  23.3019  27.1661

          k = 0.0000 0.4762 0.1201 (  2878 PWs)   bands (ev):

   -86.7816 -47.2494 -47.1885 -47.0968   6.8646   9.7466  12.5372  13.5726
    14.7545  15.0988  16.3515  18.6607  21.3306  24.5382  27.2667

          k = 0.0000 0.4762 0.2403 (  2874 PWs)   bands (ev):

   -86.7816 -47.2507 -47.1883 -47.0968   7.3097  10.1834  12.2468  13.4930
    14.7803  15.0088  15.6517  17.4439  19.6245  27.4095  27.4658

          k = 0.0000 0.4762 0.3604 (  2876 PWs)   bands (ev):

   -86.7816 -47.2518 -47.1882 -47.0967   7.7473  10.7907  11.7217  13.2889
    14.8018  14.9380  14.9910  17.0746  18.6604  27.5990  29.4719

          k = 0.1587 0.1587 0.0000 (  2891 PWs)   bands (ev):

   -86.7862 -47.2538 -47.1196 -47.1188   3.6297  12.9046  13.2405  13.5490
    14.7030  15.1920  16.9917  19.3377  20.9432  21.2572  30.1033

          k = 0.1587 0.1587 0.1201 (  2880 PWs)   bands (ev):

   -86.7862 -47.2544 -47.1195 -47.1188   3.8612  12.0686  13.2878  13.7861
    14.5801  15.2004  16.2475  19.5982  21.3297  22.8307  29.3481

          k = 0.1587 0.1587 0.2403 (  2875 PWs)   bands (ev):

   -86.7861 -47.2558 -47.1194 -47.1187   4.5074  10.4044  13.4166  14.1059
    14.3051  15.2045  15.4643  20.2283  21.9189  26.1288  27.5548

          k = 0.1587 0.1587 0.3604 (  2869 PWs)   bands (ev):

   -86.7861 -47.2570 -47.1193 -47.1186   5.2971   8.9420  13.5774  14.0454
    14.4733  14.8912  15.2607  20.8290  22.5763  26.2872  26.5046

          k = 0.1587 0.3175 0.0000 (  2876 PWs)   bands (ev):

   -86.7829 -47.2502 -47.1568 -47.1159   4.9706  12.4713  13.1142  13.4071
    14.6642  14.8313  16.9573  18.6127  21.4004  21.9588  27.2158

          k = 0.1587 0.3175 0.1201 (  2889 PWs)   bands (ev):

   -86.7829 -47.2508 -47.1567 -47.1159   5.1834  12.4793  12.5642  13.6800
    14.5530  14.8602  17.0058  17.4986  21.8449  23.6790  25.6225

          k = 0.1587 0.3175 0.2403 (  2887 PWs)   bands (ev):

   -86.7828 -47.2521 -47.1566 -47.1158   5.7673  11.3040  12.7464  13.8797
    14.4148  14.9023  15.9095  17.8128  22.2944  23.4812  27.0078

          k = 0.1587 0.3175 0.3604 (  2880 PWs)   bands (ev):

   -86.7828 -47.2532 -47.1565 -47.1157   6.4450  10.1721  12.9066  13.8695
    14.6196  14.9295  15.1225  18.4093  22.0386  22.7418  27.7297

          k = 0.1587 0.4762 0.0000 (  2886 PWs)   bands (ev):

   -86.7802 -47.2472 -47.1868 -47.1133   7.0952   9.9616  12.7964  13.7864
    14.5023  14.7575  16.4913  20.8030  22.1402  23.6530  23.9245

          k = 0.1587 0.4762 0.1201 (  2881 PWs)   bands (ev):

   -86.7802 -47.2478 -47.1868 -47.1133   7.2634  10.1120  12.6319  13.8230
    14.5890  14.7067  16.4268  19.0975  21.8838  23.3217  25.2506

          k = 0.1587 0.4762 0.2403 (  2882 PWs)   bands (ev):

   -86.7801 -47.2491 -47.1866 -47.1132   7.6948  10.5191  12.2506  13.7713
    14.5896  14.8794  16.0353  17.5878  19.9974  23.7035  27.1685

          k = 0.1587 0.4762 0.3604 (  2880 PWs)   bands (ev):

   -86.7801 -47.2502 -47.1865 -47.1131   8.1216  11.0194  11.8015  13.5290
    14.7739  15.1110  15.2828  17.0981  18.8611  24.0065  27.8395

          k = 0.3175 0.3175 0.0000 (  2877 PWs)   bands (ev):

   -86.7796 -47.2466 -47.1537 -47.1525   6.2583  12.7684  13.2857  13.2898
    14.1370  14.6594  16.7719  19.3197  19.9956  22.4886  26.3919

          k = 0.3175 0.3175 0.1201 (  2886 PWs)   bands (ev):

   -86.7795 -47.2471 -47.1537 -47.1525   6.4524  12.5820  13.0845  13.3672
    14.2519  14.7001  17.0946  18.4626  19.3061  24.2961  26.3413

          k = 0.3175 0.3175 0.2403 (  2884 PWs)   bands (ev):

   -86.7795 -47.2484 -47.1535 -47.1524   6.9764  11.8766  12.7680  13.8112
    14.3906  14.7771  16.7294  17.9474  19.2551  24.3519  24.8304

          k = 0.3175 0.3175 0.3604 (  2880 PWs)   bands (ev):

   -86.7795 -47.2495 -47.1534 -47.1523   7.5602  11.0807  12.5746  14.4566
    14.5296  14.8385  15.5038  18.9510  19.1872  22.5687  24.0008

          k = 0.3175 0.4762 0.0000 (  2887 PWs)   bands (ev):

   -86.7769 -47.2437 -47.1829 -47.1502   8.2470  10.9834  13.2060  13.6546
    14.0878  14.4331  16.3573  20.0548  21.6502  22.6176  24.4943

          k = 0.3175 0.4762 0.1201 (  2888 PWs)   bands (ev):

   -86.7769 -47.2443 -47.1828 -47.1502   8.3982  11.0914  12.7198  13.9064
    14.3107  14.5804  16.4300  19.8711  20.2091  22.7864  23.2463

          k = 0.3175 0.4762 0.2403 (  2897 PWs)   bands (ev):

   -86.7768 -47.2455 -47.1827 -47.1501   8.7867  11.3118  12.1776  14.0720
    14.5685  15.1573  16.5437  18.0743  19.8187  21.2413  23.1982

          k = 0.3175 0.4762 0.3604 (  2886 PWs)   bands (ev):

   -86.7768 -47.2465 -47.1826 -47.1500   9.1753  11.4451  11.8111  14.4932
    14.8316  15.5962  16.1126  17.0940  19.3216  20.4091  23.5664

          k = 0.4762 0.4762 0.0000 (  2922 PWs)   bands (ev):

   -86.7743 -47.2408 -47.1798 -47.1796   9.8246  12.0785  12.9131  13.5482
    13.6816  14.1713  16.2000  18.5635  20.1532  22.1436  26.1935

          k = 0.4762 0.4762 0.1201 (  2906 PWs)   bands (ev):

   -86.7742 -47.2414 -47.1798 -47.1795   9.9582  12.0078  12.3655  13.5569
    14.4490  14.6594  16.2566  18.2299  20.0015  21.4846  24.4864

          k = 0.4762 0.4762 0.2403 (  2900 PWs)   bands (ev):

   -86.7742 -47.2426 -47.1796 -47.1794  10.2867  11.8110  11.8123  14.1077
    15.4376  15.4756  16.6512  17.3907  19.1799  20.6726  22.3136

          k = 0.4762 0.4762 0.3604 (  2893 PWs)   bands (ev):

   -86.7742 -47.2436 -47.1796 -47.1793  10.5762  11.5217  11.6965  14.9871
    15.7802  16.0883  16.7709  17.7620  17.9484  20.0445  20.3796

     the Fermi energy is    17.0365 ev

!    total energy              =    -344.08181712 Ry
     estimated scf accuracy    <          5.4E-09 Ry
     smearing contrib. (-TS)   =      -0.00005348 Ry
     internal energy E=F+TS    =    -344.08176364 Ry

     The total energy is F=E-TS. E is the sum of the following terms:
     one-electron contribution =    -222.10136355 Ry
     hartree contribution      =     124.87240483 Ry
     xc contribution           =     -46.19920915 Ry
     ewald contribution        =    -200.65359577 Ry

     convergence has been achieved in   5 iterations

     Forces acting on atoms (cartesian axes, Ry/au):

     atom    1 type  1   force =     0.00000000    0.00000000    0.00000000
     atom    2 type  2   force =     0.00000000    0.00000000    0.00000000

     Total force =     0.000000     Total SCF correction =     0.000000


     Computing stress (Cartesian axis) and pressure

          total   stress  (Ry/bohr**3)                   (kbar)     P=       53.50
   0.00053588   0.00000000   0.00000000           78.83        0.00        0.00
   0.00000000   0.00053588   0.00000000            0.00       78.83        0.00
   0.00000000   0.00000000   0.00001939            0.00        0.00        2.85

     Energy error            =      5.4E-05 Ry
     Gradient error          =      0.0E+00 Ry/Bohr
     Cell gradient error     =      2.9E+00 kbar

     number of scf cycles    =   3
     number of bfgs steps    =   2

     enthalpy           old  =    -344.0817634136 Ry
     enthalpy           new  =    -344.0818171204 Ry

     CASE: enthalpy          _new < enthalpy          _old

     new trust radius        =       0.0027727644 bohr
     new conv_thr            =       0.0000000100 Ry

     new unit-cell volume =    149.61233 a.u.^3 (    22.17026 Ang^3 )
     density =      6.49969 g/cm^3

CELL_PARAMETERS (alat=  5.37330365)
   0.900000000   0.000000000   0.000000000
   0.000000000   0.900000000   0.000000000
   0.000000000   0.000000000   1.190578962

ATOMIC_POSITIONS (crystal)
Si               0.0000000000        0.0000000000        0.0000000000
Ni               0.5000000000        0.5000000000        0.5000000000



     Writing config-only to output data dir ./tmp/SiNi-relax.save/ :
     XML data file
     NEW-OLD atomic charge density approx. for the potential
     New effective cutoffs (rho, wfc):  439.86  109.94

     total cpu time spent up to now is       36.5 secs

     Self-consistent Calculation

     iteration #  1     ecut=   110.00 Ry     beta= 0.70
     Davidson diagonalization with overlap
     ethr =  1.00E-06,  avg # of iterations =  2.6

     Threshold (ethr) on eigenvalues was too large:
     Diagonalizing with lowered threshold

     Davidson diagonalization with overlap
     ethr =  1.30E-09,  avg # of iterations =  3.8

     total cpu time spent up to now is       40.5 secs

     total energy              =    -344.08181759 Ry
     estimated scf accuracy    <       0.00000060 Ry

     iteration #  2     ecut=   110.00 Ry     beta= 0.70
     Davidson diagonalization with overlap
     ethr =  2.71E-09,  avg # of iterations =  2.6

     total cpu time spent up to now is       42.3 secs

     total energy              =    -344.08181715 Ry
     estimated scf accuracy    <       0.00000603 Ry

     iteration #  3     ecut=   110.00 Ry     beta= 0.70
     Davidson diagonalization with overlap
     ethr =  2.71E-09,  avg # of iterations =  2.2

     total cpu time spent up to now is       44.1 secs

     End of self-consistent calculation

          k = 0.0000 0.0000 0.0000 (  2873 PWs)   bands (ev):

   -86.8081 -47.2757 -47.1227 -47.1227   2.6999  12.5114  13.1254  14.5463
    14.9343  14.9343  15.5956  20.7068  23.2039  23.2039  24.6380

          k = 0.0000 0.0000 0.1200 (  2881 PWs)   bands (ev):

   -86.8080 -47.2764 -47.1226 -47.1226   2.9418  11.5673  13.1620  14.4353
    14.8705  14.8705  15.5987  22.1677  23.5307  23.5307  24.5267

          k = 0.0000 0.0000 0.2400 (  2881 PWs)   bands (ev):

   -86.8080 -47.2778 -47.1226 -47.1226   3.6234   9.6485  13.2463  14.4421
    14.7346  14.7346  15.6056  24.2738  24.4122  24.4122  25.1520

          k = 0.0000 0.0000 0.3600 (  2861 PWs)   bands (ev):

   -86.8080 -47.2790 -47.1225 -47.1225   4.4814   8.0241  13.3160  14.5007
    14.6320  14.6320  15.6112  24.0684  25.4656  25.4656  27.6770

          k = 0.0000 0.1587 0.0000 (  2888 PWs)   bands (ev):

   -86.8066 -47.2741 -47.1395 -47.1213   3.1601  12.7169  13.1432  13.6876
    14.9709  15.4025  16.1359  19.6219  20.8268  23.7149  26.8473

          k = 0.0000 0.1587 0.1200 (  2883 PWs)   bands (ev):

   -86.8066 -47.2747 -47.1395 -47.1213   3.3964  11.8217  13.1847  13.8450
    14.9110  15.4095  15.6011  19.8651  22.4160  24.0169  26.7681

          k = 0.0000 0.1587 0.2400 (  2870 PWs)   bands (ev):

   -86.8065 -47.2762 -47.1394 -47.1212   4.0591  10.0252  13.3087  14.0341
    14.7840  14.9990  15.4232  20.4629  24.8232  25.3712  26.5704

          k = 0.0000 0.1587 0.3600 (  2862 PWs)   bands (ev):

   -86.8065 -47.2773 -47.1393 -47.1211   4.8803   8.4821  13.4258  14.1923
    14.6409  14.6882  15.4330  21.0475  25.7455  25.7718  26.8452

          k = 0.0000 0.3175 0.0000 (  2904 PWs)   bands (ev):

   -86.8032 -47.2705 -47.1773 -47.1182   4.5163  12.2405  12.9780  13.2447
    15.0100  15.0540  16.8104  17.9285  21.1956  25.1160  26.8867

          k = 0.0000 0.3175 0.1200 (  2886 PWs)   bands (ev):

   -86.8032 -47.2711 -47.1772 -47.1182   4.7341  12.2458  12.3869  13.5068
    14.9888  15.0364  16.4928  17.2422  23.0205  25.2327  25.3495

          k = 0.0000 0.3175 0.2400 (  2888 PWs)   bands (ev):

   -86.8032 -47.2724 -47.1771 -47.1181   5.3338  10.9928  12.6093  13.6497
    14.8937  15.0476  15.3630  17.6315  22.9574  25.9427  26.3270

          k = 0.0000 0.3175 0.3600 (  2877 PWs)   bands (ev):

   -86.8031 -47.2735 -47.1770 -47.1181   6.0380   9.7795  12.8898  13.6357
    14.8161  14.8187  15.0609  18.1879  21.5871  26.5351  27.9903

          k = 0.0000 0.4762 0.0000 (  2880 PWs)   bands (ev):

   -86.8006 -47.2675 -47.2074 -47.1158   6.6769   9.5775  12.6067  13.5607
    14.7267  15.1215  16.4962  20.2331  21.7584  23.2651  27.1475

          k = 0.0000 0.4762 0.1200 (  2878 PWs)   bands (ev):

   -86.8005 -47.2681 -47.2074 -47.1157   6.8500   9.7325  12.5173  13.5546
    14.7379  15.0809  16.3300  18.6286  21.2986  24.4978  27.2473

          k = 0.0000 0.4762 0.2400 (  2874 PWs)   bands (ev):

   -86.8005 -47.2694 -47.2072 -47.1157   7.2933  10.1675  12.2288  13.4748
    14.7635  14.9917  15.6280  17.4163  19.5982  27.3697  27.4452

          k = 0.0000 0.4762 0.3600 (  2876 PWs)   bands (ev):

   -86.8005 -47.2704 -47.2071 -47.1156   7.7289  10.7725  11.7051  13.2719
    14.7848  14.9215  14.9681  17.0462  18.6389  27.5776  29.4401

          k = 0.1587 0.1587 0.0000 (  2891 PWs)   bands (ev):

   -86.8051 -47.2725 -47.1384 -47.1377   3.6157  12.8875  13.2250  13.5242
    14.6850  15.1749  16.9608  19.3180  20.9117  21.2272  30.0852

          k = 0.1587 0.1587 0.1200 (  2880 PWs)   bands (ev):

   -86.8051 -47.2731 -47.1384 -47.1377   3.8464  12.0470  13.2721  13.7655
    14.5625  15.1832  16.2208  19.5774  21.3110  22.7830  29.3251

          k = 0.1587 0.1587 0.2400 (  2875 PWs)   bands (ev):

   -86.8050 -47.2745 -47.1383 -47.1376   4.4904  10.3833  13.4003  14.0865
    14.2887  15.1867  15.4422  20.2052  21.8976  26.0758  27.5326

          k = 0.1587 0.1587 0.3600 (  2869 PWs)   bands (ev):

   -86.8050 -47.2756 -47.1382 -47.1375   5.2764   8.9247  13.5600  14.0303
    14.4535  14.8708  15.2431  20.8033  22.5511  26.2682  26.4839

          k = 0.1587 0.3175 0.0000 (  2876 PWs)   bands (ev):

   -86.8018 -47.2689 -47.1757 -47.1348   4.9565  12.4580  13.0921  13.3905
    14.6458  14.8148  16.9356  18.5789  21.3698  21.9280  27.1790

          k = 0.1587 0.3175 0.1200 (  2889 PWs)   bands (ev):

   -86.8017 -47.2695 -47.1756 -47.1348   5.1687  12.4595  12.5498  13.6619
    14.5351  14.8434  16.9819  17.4701  21.8249  23.6337  25.5901

          k = 0.1587 0.3175 0.2400 (  2887 PWs)   bands (ev):

   -86.8017 -47.2708 -47.1755 -47.1347   5.7504  11.2844  12.7321  13.8614
    14.3972  14.8853  15.8852  17.7878  22.2724  23.4553  26.9583

          k = 0.1587 0.3175 0.3600 (  2880 PWs)   bands (ev):

   -86.8017 -47.2718 -47.1754 -47.1346   6.4251  10.1554  12.8917  13.8518
    14.6004  14.9122  15.1016  18.3817  22.0178  22.7171  27.7088

          k = 0.1587 0.4762 0.0000 (  2886 PWs)   bands (ev):

   -86.7991 -47.2659 -47.2057 -47.1322   7.0813   9.9481  12.7760  13.7693
    14.4858  14.7390  16.4708  20.7671  22.1090  23.6161  23.8976

          k = 0.1587 0.4762 0.1200 (  2881 PWs)   bands (ev):

   -86.7991 -47.2665 -47.2056 -47.1322   7.2489  10.0980  12.6126  13.8054
    14.5718  14.6887  16.4058  19.0654  21.8519  23.2986  25.2124

          k = 0.1587 0.4762 0.2400 (  2882 PWs)   bands (ev):

   -86.7990 -47.2678 -47.2055 -47.1321   7.6786  10.5034  12.2335  13.7535
    14.5717  14.8616  16.0127  17.5601  19.9709  23.6812  27.1426

          k = 0.1587 0.4762 0.3600 (  2880 PWs)   bands (ev):

   -86.7990 -47.2688 -47.2053 -47.1320   8.1034  11.0019  11.7860  13.5120
    14.7544  15.0934  15.2617  17.0702  18.8397  23.9825  27.8154

          k = 0.3175 0.3175 0.0000 (  2877 PWs)   bands (ev):

   -86.7984 -47.2653 -47.1726 -47.1714   6.2443  12.7547  13.2687  13.2720
    14.1188  14.6431  16.7506  19.2976  19.9607  22.4480  26.3707

          k = 0.3175 0.3175 0.1200 (  2886 PWs)   bands (ev):

   -86.7984 -47.2658 -47.1725 -47.1714   6.4378  12.5656  13.0706  13.3487
    14.2340  14.6835  17.0726  18.4312  19.2834  24.2561  26.3129

          k = 0.3175 0.3175 0.2400 (  2884 PWs)   bands (ev):

   -86.7984 -47.2671 -47.1724 -47.1713   6.9599  11.8593  12.7543  13.7934
    14.3729  14.7603  16.7029  17.9233  19.2313  24.3259  24.8031

          k = 0.3175 0.3175 0.3600 (  2880 PWs)   bands (ev):

   -86.7983 -47.2681 -47.1723 -47.1712   7.5411  11.0652  12.5611  14.4388
    14.5101  14.8210  15.4813  18.9229  19.1624  22.5484  23.9788

          k = 0.3175 0.4762 0.0000 (  2887 PWs)   bands (ev):

   -86.7958 -47.2624 -47.2017 -47.1691   8.2336  10.9701  13.1864  13.6394
    14.0693  14.4170  16.3371  20.0326  21.6147  22.5964  24.4556

          k = 0.3175 0.4762 0.1200 (  2888 PWs)   bands (ev):

   -86.7958 -47.2629 -47.2017 -47.1690   8.3843  11.0777  12.7029  13.8888
    14.2929  14.5633  16.4092  19.8439  20.1815  22.7656  23.2132

          k = 0.3175 0.4762 0.2400 (  2897 PWs)   bands (ev):

   -86.7957 -47.2642 -47.2016 -47.1689   8.7713  11.2971  12.1623  14.0540
    14.5511  15.1382  16.5213  18.0468  19.7952  21.2144  23.1754

          k = 0.3175 0.4762 0.3600 (  2886 PWs)   bands (ev):

   -86.7957 -47.2652 -47.2014 -47.1689   9.1580  11.4300  11.7971  14.4755
    14.8116  15.5763  16.0912  17.0677  19.3010  20.3828  23.5416

          k = 0.4762 0.4762 0.0000 (  2922 PWs)   bands (ev):

   -86.7931 -47.2595 -47.1987 -47.1985   9.8127  12.0649  12.8989  13.5295
    13.6633  14.1563  16.1805  18.5377  20.1327  22.1091  26.1526

          k = 0.4762 0.4762 0.1200 (  2906 PWs)   bands (ev):

   -86.7931 -47.2601 -47.1986 -47.1984   9.9459  11.9939  12.3511  13.5398
    14.4307  14.6421  16.2369  18.2036  19.9803  21.4543  24.4520

          k = 0.4762 0.4762 0.2400 (  2900 PWs)   bands (ev):

   -86.7931 -47.2613 -47.1985 -47.1983  10.2730  11.7972  11.7985  14.0899
    15.4190  15.4560  16.6298  17.3651  19.1570  20.6464  22.2852

          k = 0.4762 0.4762 0.3600 (  2893 PWs)   bands (ev):

   -86.7930 -47.2623 -47.1984 -47.1982  10.5611  11.5082  11.6833  14.9665
    15.7616  16.0651  16.7485  17.7414  17.9230  20.0215  20.3532

     the Fermi energy is    17.0112 ev

!    total energy              =    -344.08181793 Ry
     estimated scf accuracy    <          7.7E-09 Ry
     smearing contrib. (-TS)   =      -0.00007288 Ry
     internal energy E=F+TS    =    -344.08174505 Ry

     The total energy is F=E-TS. E is the sum of the following terms:
     one-electron contribution =    -222.27277293 Ry
     hartree contribution      =     124.94213394 Ry
     xc contribution           =     -46.19752547 Ry
     ewald contribution        =    -200.55358058 Ry

     convergence has been achieved in   3 iterations

     Forces acting on atoms (cartesian axes, Ry/au):

     atom    1 type  1   force =     0.00000000    0.00000000    0.00000000
     atom    2 type  2   force =     0.00000000    0.00000000    0.00000000

     Total force =     0.000000     Total SCF correction =     0.000000


     Computing stress (Cartesian axis) and pressure

          total   stress  (Ry/bohr**3)                   (kbar)     P=       50.65
   0.00051869   0.00000000   0.00000000           76.30        0.00        0.00
   0.00000000   0.00051869   0.00000000            0.00       76.30        0.00
   0.00000000   0.00000000  -0.00000444            0.00        0.00       -0.65

     Energy error            =      8.1E-07 Ry
     Gradient error          =      0.0E+00 Ry/Bohr
     Cell gradient error     =      6.5E-01 kbar

     number of scf cycles    =   4
     number of bfgs steps    =   3

     enthalpy           old  =    -344.0818171204 Ry
     enthalpy           new  =    -344.0818179274 Ry

     CASE: enthalpy          _new < enthalpy          _old

     new trust radius        =       0.0005160829 bohr
     new conv_thr            =       0.0000000100 Ry

     new unit-cell volume =    149.58076 a.u.^3 (    22.16558 Ang^3 )
     density =      6.50106 g/cm^3

CELL_PARAMETERS (alat=  5.37330365)
   0.900000000   0.000000000   0.000000000
   0.000000000   0.900000000   0.000000000
   0.000000000   0.000000000   1.190327794

ATOMIC_POSITIONS (crystal)
Si               0.0000000000        0.0000000000        0.0000000000
Ni               0.5000000000        0.5000000000        0.5000000000



     Writing config-only to output data dir ./tmp/SiNi-relax.save/ :
     XML data file
     NEW-OLD atomic charge density approx. for the potential
     New effective cutoffs (rho, wfc):  439.86  109.94

     total cpu time spent up to now is       45.5 secs

     Self-consistent Calculation

     iteration #  1     ecut=   110.00 Ry     beta= 0.70
     Davidson diagonalization with overlap
     ethr =  1.00E-06,  avg # of iterations =  1.0

     Threshold (ethr) on eigenvalues was too large:
     Diagonalizing with lowered threshold

     Davidson diagonalization with overlap
     ethr =  5.60E-10,  avg # of iterations =  3.0

     total cpu time spent up to now is       49.3 secs

     total energy              =    -344.08181787 Ry
     estimated scf accuracy    <       0.00000025 Ry

     iteration #  2     ecut=   110.00 Ry     beta= 0.70
     Davidson diagonalization with overlap
     ethr =  1.13E-09,  avg # of iterations =  2.7

     total cpu time spent up to now is       51.3 secs

     total energy              =    -344.08181768 Ry
     estimated scf accuracy    <       0.00000301 Ry

     iteration #  3     ecut=   110.00 Ry     beta= 0.70
     Davidson diagonalization with overlap
     ethr =  1.13E-09,  avg # of iterations =  2.2

     total cpu time spent up to now is       53.3 secs

     End of self-consistent calculation

          k = 0.0000 0.0000 0.0000 (  2873 PWs)   bands (ev):

   -86.8043 -47.2720 -47.1188 -47.1188   2.7024  12.5149  13.1286  14.5532
    14.9379  14.9379  15.5992  20.7150  23.2066  23.2066  24.6422

          k = 0.0000 0.0000 0.1200 (  2881 PWs)   bands (ev):

   -86.8042 -47.2726 -47.1188 -47.1188   2.9445  11.5716  13.1653  14.4409
    14.8740  14.8740  15.6023  22.1765  23.5336  23.5336  24.5308

          k = 0.0000 0.0000 0.2400 (  2881 PWs)   bands (ev):

   -86.8042 -47.2741 -47.1187 -47.1187   3.6266   9.6526  13.2497  14.4468
    14.7379  14.7379  15.6093  24.2776  24.4157  24.4157  25.1615

          k = 0.0000 0.0000 0.3600 (  2861 PWs)   bands (ev):

   -86.8041 -47.2753 -47.1187 -47.1187   4.4853   8.0274  13.3195  14.5053
    14.6352  14.6352  15.6149  24.0720  25.4702  25.4702  27.6849

          k = 0.0000 0.1587 0.0000 (  2888 PWs)   bands (ev):

   -86.8028 -47.2704 -47.1357 -47.1175   3.1627  12.7203  13.1464  13.6925
    14.9745  15.4061  16.1416  19.6255  20.8350  23.7177  26.8512

          k = 0.0000 0.1587 0.1200 (  2883 PWs)   bands (ev):

   -86.8027 -47.2710 -47.1357 -47.1175   3.3992  11.8259  13.1878  13.8492
    14.9145  15.4131  15.6060  19.8688  22.4248  24.0199  26.7721

          k = 0.0000 0.1587 0.2400 (  2870 PWs)   bands (ev):

   -86.8027 -47.2724 -47.1356 -47.1174   4.0623  10.0293  13.3120  14.0379
    14.7873  15.0033  15.4268  20.4671  24.8268  25.3793  26.5756

          k = 0.0000 0.1587 0.3600 (  2862 PWs)   bands (ev):

   -86.8027 -47.2736 -47.1355 -47.1173   4.8841   8.4853  13.4293  14.1956
    14.6453  14.6915  15.4366  21.0522  25.7500  25.7753  26.8502

          k = 0.0000 0.3175 0.0000 (  2904 PWs)   bands (ev):

   -86.7994 -47.2667 -47.1734 -47.1144   4.5189  12.2430  12.9823  13.2481
    15.0134  15.0576  16.8146  17.9348  21.2033  25.1190  26.8936

          k = 0.0000 0.3175 0.1200 (  2886 PWs)   bands (ev):

   -86.7994 -47.2673 -47.1734 -47.1144   4.7368  12.2494  12.3900  13.5104
    14.9922  15.0399  16.4978  17.2472  23.0284  25.2391  25.3527

          k = 0.0000 0.3175 0.2400 (  2888 PWs)   bands (ev):

   -86.7994 -47.2687 -47.1733 -47.1143   5.3370  10.9966  12.6121  13.6533
    14.8971  15.0511  15.3677  17.6363  22.9621  25.9465  26.3353

          k = 0.0000 0.3175 0.3600 (  2877 PWs)   bands (ev):

   -86.7993 -47.2697 -47.1732 -47.1142   6.0417   9.7827  12.8928  13.6392
    14.8194  14.8231  15.0645  18.1932  21.5910  26.5395  27.9956

          k = 0.0000 0.4762 0.0000 (  2880 PWs)   bands (ev):

   -86.7967 -47.2638 -47.2036 -47.1119   6.6795   9.5800  12.6107  13.5642
    14.7301  15.1251  16.5003  20.2399  21.7652  23.2720  27.1510

          k = 0.0000 0.4762 0.1200 (  2878 PWs)   bands (ev):

   -86.7967 -47.2644 -47.2036 -47.1119   6.8527   9.7351  12.5211  13.5581
    14.7413  15.0845  16.3342  18.6346  21.3046  24.5054  27.2509

          k = 0.0000 0.4762 0.2400 (  2874 PWs)   bands (ev):

   -86.7967 -47.2656 -47.2034 -47.1118   7.2963  10.1704  12.2322  13.4783
    14.7669  14.9951  15.6326  17.4216  19.6032  27.3771  27.4490

          k = 0.0000 0.4762 0.3600 (  2876 PWs)   bands (ev):

   -86.7966 -47.2667 -47.2033 -47.1118   7.7323  10.7759  11.7082  13.2752
    14.7883  14.9249  14.9725  17.0517  18.6430  27.5816  29.4460

          k = 0.1587 0.1587 0.0000 (  2891 PWs)   bands (ev):

   -86.8013 -47.2687 -47.1346 -47.1339   3.6183  12.8908  13.2280  13.5289
    14.6886  15.1784  16.9667  19.3217  20.9177  21.2327  30.0885

          k = 0.1587 0.1587 0.1200 (  2880 PWs)   bands (ev):

   -86.8013 -47.2694 -47.1346 -47.1338   3.8492  12.0511  13.2752  13.7695
    14.5660  15.1867  16.2259  19.5813  21.3145  22.7919  29.3294

          k = 0.1587 0.1587 0.2400 (  2875 PWs)   bands (ev):

   -86.8012 -47.2708 -47.1345 -47.1338   4.4935  10.3873  13.4035  14.0903
    14.2919  15.1903  15.4465  20.2095  21.9016  26.0857  27.5367

          k = 0.1587 0.1587 0.3600 (  2869 PWs)   bands (ev):

   -86.8012 -47.2719 -47.1344 -47.1337   5.2802   8.9280  13.5634  14.0333
    14.4573  14.8748  15.2466  20.8081  22.5557  26.2718  26.4878

          k = 0.1587 0.3175 0.0000 (  2876 PWs)   bands (ev):

   -86.7979 -47.2651 -47.1718 -47.1310   4.9591  12.4606  13.0964  13.3938
    14.6495  14.8181  16.9397  18.5853  21.3756  21.9337  27.1859

          k = 0.1587 0.3175 0.1200 (  2889 PWs)   bands (ev):

   -86.7979 -47.2657 -47.1718 -47.1310   5.1714  12.4633  12.5526  13.6654
    14.5386  14.8468  16.9865  17.4755  21.8286  23.6421  25.5962

          k = 0.1587 0.3175 0.2400 (  2887 PWs)   bands (ev):

   -86.7979 -47.2670 -47.1717 -47.1309   5.7535  11.2881  12.7348  13.8650
    14.4006  14.8887  15.8899  17.7925  22.2765  23.4602  26.9676

          k = 0.1587 0.3175 0.3600 (  2880 PWs)   bands (ev):

   -86.7978 -47.2681 -47.1716 -47.1308   6.4287  10.1586  12.8946  13.8553
    14.6041  14.9157  15.1057  18.3869  22.0218  22.7217  27.7127

          k = 0.1587 0.4762 0.0000 (  2886 PWs)   bands (ev):

   -86.7953 -47.2622 -47.2019 -47.1284   7.0839   9.9506  12.7799  13.7726
    14.4891  14.7427  16.4749  20.7738  22.1148  23.6230  23.9026

          k = 0.1587 0.4762 0.1200 (  2881 PWs)   bands (ev):

   -86.7953 -47.2628 -47.2018 -47.1284   7.2516  10.1006  12.6164  13.8088
    14.5752  14.6923  16.4099  19.0715  21.8579  23.3029  25.2195

          k = 0.1587 0.4762 0.2400 (  2882 PWs)   bands (ev):

   -86.7952 -47.2640 -47.2016 -47.1283   7.6816  10.5064  12.2368  13.7570
    14.5752  14.8652  16.0171  17.5654  19.9759  23.6853  27.1474

          k = 0.1587 0.4762 0.3600 (  2880 PWs)   bands (ev):

   -86.7952 -47.2651 -47.2015 -47.1282   8.1068  11.0051  11.7889  13.5153
    14.7582  15.0969  15.2658  17.0756  18.8438  23.9870  27.8198

          k = 0.3175 0.3175 0.0000 (  2877 PWs)   bands (ev):

   -86.7946 -47.2615 -47.1688 -47.1676   6.2469  12.7574  13.2728  13.2746
    14.1224  14.6463  16.7547  19.3018  19.9673  22.4556  26.3747

          k = 0.3175 0.3175 0.1200 (  2886 PWs)   bands (ev):

   -86.7946 -47.2621 -47.1687 -47.1676   6.4405  12.5688  13.0733  13.3523
    14.2375  14.6869  17.0768  18.4371  19.2877  24.2636  26.3182

          k = 0.3175 0.3175 0.2400 (  2884 PWs)   bands (ev):

   -86.7946 -47.2634 -47.1686 -47.1675   6.9629  11.8626  12.7570  13.7968
    14.3764  14.7636  16.7080  17.9279  19.2357  24.3308  24.8083

          k = 0.3175 0.3175 0.3600 (  2880 PWs)   bands (ev):

   -86.7945 -47.2644 -47.1685 -47.1674   7.5446  11.0681  12.5637  14.4423
    14.5139  14.8245  15.4856  18.9282  19.1670  22.5522  23.9830

          k = 0.3175 0.4762 0.0000 (  2887 PWs)   bands (ev):

   -86.7920 -47.2586 -47.1979 -47.1653   8.2361  10.9726  13.1902  13.6424
    14.0729  14.4201  16.3410  20.0368  21.6214  22.6003  24.4629

          k = 0.3175 0.4762 0.1200 (  2888 PWs)   bands (ev):

   -86.7920 -47.2592 -47.1979 -47.1652   8.3869  11.0803  12.7062  13.8923
    14.2964  14.5666  16.4133  19.8490  20.1867  22.7694  23.2194

          k = 0.3175 0.4762 0.2400 (  2897 PWs)   bands (ev):

   -86.7919 -47.2604 -47.1977 -47.1651   8.7742  11.2999  12.1653  14.0575
    14.5546  15.1420  16.5256  18.0520  19.7996  21.2195  23.1796

          k = 0.3175 0.4762 0.3600 (  2886 PWs)   bands (ev):

   -86.7919 -47.2614 -47.1976 -47.1650   9.1613  11.4328  11.7999  14.4790
    14.8155  15.5802  16.0954  17.0727  19.3049  20.3877  23.5462

          k = 0.4762 0.4762 0.0000 (  2922 PWs)   bands (ev):

   -86.7893 -47.2558 -47.1949 -47.1946   9.8150  12.0675  12.9015  13.5332
    13.6669  14.1592  16.1844  18.5427  20.1366  22.1155  26.1603

          k = 0.4762 0.4762 0.1200 (  2906 PWs)   bands (ev):

   -86.7893 -47.2563 -47.1948 -47.1946   9.9483  11.9966  12.3539  13.5431
    14.4342  14.6455  16.2408  18.2086  19.9843  21.4600  24.4584

          k = 0.4762 0.4762 0.2400 (  2900 PWs)   bands (ev):

   -86.7893 -47.2575 -47.1947 -47.1945  10.2756  11.7998  11.8012  14.0933
    15.4226  15.4599  16.6340  17.3699  19.1613  20.6513  22.2906

          k = 0.4762 0.4762 0.3600 (  2893 PWs)   bands (ev):

   -86.7892 -47.2585 -47.1946 -47.1944  10.5640  11.5108  11.6859  14.9705
    15.7653  16.0695  16.7527  17.7453  17.9279  20.0258  20.3582

     the Fermi energy is    17.0161 ev

!    total energy              =    -344.08181804 Ry
     estimated scf accuracy    <          2.7E-10 Ry
     smearing contrib. (-TS)   =      -0.00006919 Ry
     internal energy E=F+TS    =    -344.08174885 Ry

     The total energy is F=E-TS. E is the sum of the following terms:
     one-electron contribution =    -222.24018100 Ry
     hartree contribution      =     124.92842245 Ry
     xc contribution           =     -46.19778744 Ry
     ewald contribution        =    -200.57220285 Ry

     convergence has been achieved in   3 iterations

     Forces acting on atoms (cartesian axes, Ry/au):

     atom    1 type  1   force =     0.00000000    0.00000000    0.00000000
     atom    2 type  2   force =     0.00000000    0.00000000    0.00000000

     Total force =     0.000000     Total SCF correction =     0.000000


     Computing stress (Cartesian axis) and pressure

          total   stress  (Ry/bohr**3)                   (kbar)     P=       51.23
   0.00052249   0.00000000   0.00000000           76.86        0.00        0.00
   0.00000000   0.00052249   0.00000000            0.00       76.86        0.00
   0.00000000   0.00000000  -0.00000015            0.00        0.00       -0.02

     Energy error            =      1.1E-07 Ry
     Gradient error          =      0.0E+00 Ry/Bohr
     Cell gradient error     =      2.2E-02 kbar

     bfgs converged in   5 scf cycles and   4 bfgs steps
     (criteria: energy <  1.0E-04 Ry, force <  1.0E-03 Ry/Bohr, cell <  5.0E-01 kbar)

     End of BFGS Geometry Optimization

     Final enthalpy           =    -344.0818180395 Ry

     File ./tmp/SiNi-relax.bfgs deleted, as requested
Begin final coordinates
     new unit-cell volume =    149.58076 a.u.^3 (    22.16558 Ang^3 )
     density =      6.50106 g/cm^3

CELL_PARAMETERS (alat=  5.37330365)
   0.900000000   0.000000000   0.000000000
   0.000000000   0.900000000   0.000000000
   0.000000000   0.000000000   1.190327794

ATOMIC_POSITIONS (crystal)
Si               0.0000000000        0.0000000000        0.0000000000
Ni               0.5000000000        0.5000000000        0.5000000000
End final coordinates



     Writing config-only to output data dir ./tmp/SiNi-relax.save/ :
     XML data file

     Final scf calculation at the relaxed structure.
     The G-vectors are recalculated for the final unit cell
     Results may differ from those at the preceding step.

     G-vector sticks info
     --------------------
     sticks:   dense  smooth     PW     G-vecs:    dense   smooth      PW
     Sum         821     821    241                23295    23295    3719

     Using Slab Decomposition



     bravais-lattice index     =            0
     lattice parameter (alat)  =       5.3733  a.u.
     unit-cell volume          =     149.5808 (a.u.)^3
     number of atoms/cell      =            2
     number of atomic types    =            2
     number of electrons       =        22.00
     number of Kohn-Sham states=           15
     kinetic-energy cutoff     =     110.0000  Ry
     charge density cutoff     =     440.0000  Ry
     scf convergence threshold =      1.0E-08
     mixing beta               =       0.7000
     number of iterations used =            8  plain     mixing
     press convergence thresh. =      5.0E-01
     Exchange-correlation= PBE
                           (   1   4   3   4   0   0   0)

     celldm(1)=   5.373304  celldm(2)=   0.000000  celldm(3)=   0.000000
     celldm(4)=   0.000000  celldm(5)=   0.000000  celldm(6)=   0.000000

     crystal axes: (cart. coord. in units of alat)
               a(1) = (   0.900000   0.000000   0.000000 )  
               a(2) = (   0.000000   0.900000   0.000000 )  
               a(3) = (   0.000000   0.000000   1.190328 )  

     reciprocal axes: (cart. coord. in units 2 pi/alat)
               b(1) = (  1.111111  0.000000  0.000000 )  
               b(2) = (  0.000000  1.111111  0.000000 )  
               b(3) = (  0.000000  0.000000  0.840105 )  


     PseudoPot. # 1 for Si read from file:
     ./PSEUDO/Si.upf
     MD5 check sum: 02fab3f35e82123ef5bf1cb05d5b1a5e
     Pseudo is Norm-conserving + core correction, Zval =  4.0
     Generated using ONCVPSP code by D. R. Hamann
     Using radial grid of 1510 points,  6 beta functions with: 
                l(1) =   0
                l(2) =   0
                l(3) =   1
                l(4) =   1
                l(5) =   2
                l(6) =   2

     PseudoPot. # 2 for Ni read from file:
     ./PSEUDO/Ni.upf
     MD5 check sum: 2b0a79d100e227970886d6963e34175b
     Pseudo is Norm-conserving + core correction, Zval = 18.0
     Generated using ONCVPSP code by D. R. Hamann
     Using radial grid of 1372 points,  6 beta functions with: 
                l(1) =   0
                l(2) =   0
                l(3) =   1
                l(4) =   1
                l(5) =   2
                l(6) =   2

     atomic species   valence    mass     pseudopotential
     Si                4.00    28.08550     Si( 1.00)
     Ni               18.00    58.69340     Ni( 1.00)

     16 Sym. Ops., with inversion, found



   Cartesian axes

     site n.     atom                  positions (alat units)
         1        Si     tau(   1) = (   0.0000000   0.0000000   0.0000000  )
         2        Ni     tau(   2) = (   0.4500000   0.4500000   0.5951639  )

     number of k points=    40  Methfessel-Paxton smearing, width (Ry)=  0.0400
                       cart. coord. in units 2pi/alat
        k(    1) = (   0.0000000   0.0000000   0.0000000), wk =   0.0058309
        k(    2) = (   0.0000000   0.0000000   0.1200150), wk =   0.0116618
        k(    3) = (   0.0000000   0.0000000   0.2400299), wk =   0.0116618
        k(    4) = (   0.0000000   0.0000000   0.3600449), wk =   0.0116618
        k(    5) = (   0.0000000   0.1587302   0.0000000), wk =   0.0233236
        k(    6) = (   0.0000000   0.1587302   0.1200150), wk =   0.0466472
        k(    7) = (   0.0000000   0.1587302   0.2400299), wk =   0.0466472
        k(    8) = (   0.0000000   0.1587302   0.3600449), wk =   0.0466472
        k(    9) = (   0.0000000   0.3174603   0.0000000), wk =   0.0233236
        k(   10) = (   0.0000000   0.3174603   0.1200150), wk =   0.0466472
        k(   11) = (   0.0000000   0.3174603   0.2400299), wk =   0.0466472
        k(   12) = (   0.0000000   0.3174603   0.3600449), wk =   0.0466472
        k(   13) = (   0.0000000   0.4761905   0.0000000), wk =   0.0233236
        k(   14) = (   0.0000000   0.4761905   0.1200150), wk =   0.0466472
        k(   15) = (   0.0000000   0.4761905   0.2400299), wk =   0.0466472
        k(   16) = (   0.0000000   0.4761905   0.3600449), wk =   0.0466472
        k(   17) = (   0.1587302   0.1587302   0.0000000), wk =   0.0233236
        k(   18) = (   0.1587302   0.1587302   0.1200150), wk =   0.0466472
        k(   19) = (   0.1587302   0.1587302   0.2400299), wk =   0.0466472
        k(   20) = (   0.1587302   0.1587302   0.3600449), wk =   0.0466472
        k(   21) = (   0.1587302   0.3174603   0.0000000), wk =   0.0466472
        k(   22) = (   0.1587302   0.3174603   0.1200150), wk =   0.0932945
        k(   23) = (   0.1587302   0.3174603   0.2400299), wk =   0.0932945
        k(   24) = (   0.1587302   0.3174603   0.3600449), wk =   0.0932945
        k(   25) = (   0.1587302   0.4761905   0.0000000), wk =   0.0466472
        k(   26) = (   0.1587302   0.4761905   0.1200150), wk =   0.0932945
        k(   27) = (   0.1587302   0.4761905   0.2400299), wk =   0.0932945
        k(   28) = (   0.1587302   0.4761905   0.3600449), wk =   0.0932945
        k(   29) = (   0.3174603   0.3174603   0.0000000), wk =   0.0233236
        k(   30) = (   0.3174603   0.3174603   0.1200150), wk =   0.0466472
        k(   31) = (   0.3174603   0.3174603   0.2400299), wk =   0.0466472
        k(   32) = (   0.3174603   0.3174603   0.3600449), wk =   0.0466472
        k(   33) = (   0.3174603   0.4761905   0.0000000), wk =   0.0466472
        k(   34) = (   0.3174603   0.4761905   0.1200150), wk =   0.0932945
        k(   35) = (   0.3174603   0.4761905   0.2400299), wk =   0.0932945
        k(   36) = (   0.3174603   0.4761905   0.3600449), wk =   0.0932945
        k(   37) = (   0.4761905   0.4761905   0.0000000), wk =   0.0233236
        k(   38) = (   0.4761905   0.4761905   0.1200150), wk =   0.0466472
        k(   39) = (   0.4761905   0.4761905   0.2400299), wk =   0.0466472
        k(   40) = (   0.4761905   0.4761905   0.3600449), wk =   0.0466472

     Dense  grid:    23295 G-vectors     FFT dimensions: (  36,  36,  45)

     Estimated max dynamical RAM per process >      53.15 MB

     Initial potential from superposition of free atoms

     starting charge      21.9992, renormalised to      22.0000
     Starting wfcs are   14 randomized atomic wfcs +    1 random wfcs

     total cpu time spent up to now is       55.4 secs

     Self-consistent Calculation

     iteration #  1     ecut=   110.00 Ry     beta= 0.70
     Davidson diagonalization with overlap
     ethr =  1.00E-06,  avg # of iterations = 12.1

     total cpu time spent up to now is       60.5 secs

     total energy              =    -343.95687077 Ry
     estimated scf accuracy    <       0.19729569 Ry

     iteration #  2     ecut=   110.00 Ry     beta= 0.70
     Davidson diagonalization with overlap
     ethr =  8.97E-04,  avg # of iterations =  2.7

     total cpu time spent up to now is       62.7 secs

     total energy              =    -343.72696486 Ry
     estimated scf accuracy    <       2.81246052 Ry

     iteration #  3     ecut=   110.00 Ry     beta= 0.70
     Davidson diagonalization with overlap
     ethr =  8.97E-04,  avg # of iterations =  2.4

     total cpu time spent up to now is       64.6 secs

     total energy              =    -344.08088959 Ry
     estimated scf accuracy    <       0.00698631 Ry

     iteration #  4     ecut=   110.00 Ry     beta= 0.70
     Davidson diagonalization with overlap
     ethr =  3.18E-05,  avg # of iterations =  1.9

     total cpu time spent up to now is       66.2 secs

     total energy              =    -344.08174068 Ry
     estimated scf accuracy    <       0.00066154 Ry

     iteration #  5     ecut=   110.00 Ry     beta= 0.70
     Davidson diagonalization with overlap
     ethr =  3.01E-06,  avg # of iterations =  1.8

     total cpu time spent up to now is       67.8 secs

     total energy              =    -344.08181261 Ry
     estimated scf accuracy    <       0.00002479 Ry

     iteration #  6     ecut=   110.00 Ry     beta= 0.70
     Davidson diagonalization with overlap
     ethr =  1.13E-07,  avg # of iterations =  2.3

     total cpu time spent up to now is       69.6 secs

     total energy              =    -344.08181960 Ry
     estimated scf accuracy    <       0.00000502 Ry

     iteration #  7     ecut=   110.00 Ry     beta= 0.70
     Davidson diagonalization with overlap
     ethr =  2.28E-08,  avg # of iterations =  1.5

     total cpu time spent up to now is       71.1 secs

     total energy              =    -344.08182006 Ry
     estimated scf accuracy    <       0.00000016 Ry

     iteration #  8     ecut=   110.00 Ry     beta= 0.70
     Davidson diagonalization with overlap
     ethr =  7.45E-10,  avg # of iterations =  3.1

     total cpu time spent up to now is       73.0 secs

     total energy              =    -344.08182011 Ry
     estimated scf accuracy    <       0.00000001 Ry

     iteration #  9     ecut=   110.00 Ry     beta= 0.70
     Davidson diagonalization with overlap
     ethr =  6.40E-11,  avg # of iterations =  1.4

     total cpu time spent up to now is       74.5 secs

     End of self-consistent calculation

          k = 0.0000 0.0000 0.0000 (  2897 PWs)   bands (ev):

   -86.8044 -47.2721 -47.1190 -47.1190   2.7024  12.5149  13.1285  14.5532
    14.9378  14.9378  15.5991  20.7150  23.2066  23.2066  24.6422

          k = 0.0000 0.0000 0.1200 (  2913 PWs)   bands (ev):

   -86.8044 -47.2728 -47.1190 -47.1190   2.9445  11.5716  13.1652  14.4408
    14.8740  14.8740  15.6022  22.1765  23.5336  23.5336  24.5307

          k = 0.0000 0.0000 0.2400 (  2889 PWs)   bands (ev):

   -86.8044 -47.2742 -47.1189 -47.1189   3.6266   9.6526  13.2497  14.4468
    14.7379  14.7379  15.6092  24.2776  24.4157  24.4157  25.1615

          k = 0.0000 0.0000 0.3600 (  2890 PWs)   bands (ev):

   -86.8043 -47.2754 -47.1189 -47.1189   4.4853   8.0274  13.3195  14.5052
    14.6352  14.6352  15.6148  24.0720  25.4701  25.4701  27.6849

          k = 0.0000 0.1587 0.0000 (  2908 PWs)   bands (ev):

   -86.8029 -47.2705 -47.1359 -47.1176   3.1627  12.7203  13.1463  13.6925
    14.9744  15.4060  16.1415  19.6254  20.8349  23.7177  26.8512

          k = 0.0000 0.1587 0.1200 (  2915 PWs)   bands (ev):

   -86.8029 -47.2711 -47.1358 -47.1176   3.3992  11.8259  13.1878  13.8492
    14.9144  15.4130  15.6060  19.8688  22.4247  24.0199  26.7721

          k = 0.0000 0.1587 0.2400 (  2904 PWs)   bands (ev):

   -86.8029 -47.2725 -47.1357 -47.1175   4.0623  10.0293  13.3120  14.0378
    14.7872  15.0033  15.4267  20.4670  24.8268  25.3792  26.5756

          k = 0.0000 0.1587 0.3600 (  2893 PWs)   bands (ev):

   -86.8028 -47.2737 -47.1357 -47.1175   4.8841   8.4853  13.4293  14.1955
    14.6452  14.6914  15.4365  21.0522  25.7500  25.7753  26.8502

          k = 0.0000 0.3175 0.0000 (  2930 PWs)   bands (ev):

   -86.7996 -47.2668 -47.1736 -47.1146   4.5189  12.2429  12.9823  13.2481
    15.0133  15.0575  16.8145  17.9348  21.2033  25.1190  26.8936

          k = 0.0000 0.3175 0.1200 (  2920 PWs)   bands (ev):

   -86.7996 -47.2674 -47.1735 -47.1145   4.7368  12.2494  12.3899  13.5104
    14.9922  15.0398  16.4978  17.2471  23.0284  25.2391  25.3527

          k = 0.0000 0.3175 0.2400 (  2909 PWs)   bands (ev):

   -86.7995 -47.2688 -47.1734 -47.1145   5.3370  10.9965  12.6121  13.6533
    14.8970  15.0510  15.3676  17.6363  22.9621  25.9464  26.3353

          k = 0.0000 0.3175 0.3600 (  2904 PWs)   bands (ev):

   -86.7995 -47.2699 -47.1733 -47.1144   6.0417   9.7827  12.8927  13.6392
    14.8193  14.8230  15.0644  18.1932  21.5910  26.5394  27.9956

          k = 0.0000 0.4762 0.0000 (  2908 PWs)   bands (ev):

   -86.7969 -47.2639 -47.2038 -47.1121   6.6795   9.5800  12.6106  13.5642
    14.7300  15.1251  16.5002  20.2398  21.7652  23.2720  27.0573

          k = 0.0000 0.4762 0.1200 (  2905 PWs)   bands (ev):

   -86.7969 -47.2645 -47.2037 -47.1121   6.8527   9.7351  12.5211  13.5580
    14.7412  15.0844  16.3342  18.6346  21.3045  24.5053  27.2509

          k = 0.0000 0.4762 0.2400 (  2906 PWs)   bands (ev):

   -86.7969 -47.2658 -47.2035 -47.1120   7.2963  10.1704  12.2322  13.4783
    14.7669  14.9951  15.6325  17.4215  19.6032  27.3771  27.4490

          k = 0.0000 0.4762 0.3600 (  2905 PWs)   bands (ev):

   -86.7968 -47.2668 -47.2034 -47.1119   7.7323  10.7759  11.7082  13.2752
    14.7882  14.9248  14.9725  17.0516  18.6430  27.5816  29.4460

          k = 0.1587 0.1587 0.0000 (  2913 PWs)   bands (ev):

   -86.8015 -47.2689 -47.1348 -47.1340   3.6183  12.8908  13.2280  13.5289
    14.6885  15.1783  16.9666  19.3216  20.9177  21.2327  30.0885

          k = 0.1587 0.1587 0.1200 (  2915 PWs)   bands (ev):

   -86.8014 -47.2695 -47.1347 -47.1340   3.8492  12.0511  13.2752  13.7695
    14.5660  15.1866  16.2259  19.5813  21.3145  22.7919  29.3294

          k = 0.1587 0.1587 0.2400 (  2914 PWs)   bands (ev):

   -86.8014 -47.2709 -47.1346 -47.1339   4.4935  10.3873  13.4034  14.0902
    14.2919  15.1902  15.4464  20.2095  21.9015  26.0857  27.5367

          k = 0.1587 0.1587 0.3600 (  2898 PWs)   bands (ev):

   -86.8014 -47.2720 -47.1346 -47.1339   5.2802   8.9280  13.5634  14.0332
    14.4573  14.8747  15.2466  20.8081  22.5557  26.2718  26.4878

          k = 0.1587 0.3175 0.0000 (  2900 PWs)   bands (ev):

   -86.7981 -47.2652 -47.1720 -47.1312   4.9591  12.4605  13.0963  13.3937
    14.6494  14.8181  16.9397  18.5852  21.3755  21.9337  27.1859

          k = 0.1587 0.3175 0.1200 (  2921 PWs)   bands (ev):

   -86.7981 -47.2658 -47.1719 -47.1311   5.1714  12.4633  12.5525  13.6654
    14.5386  14.8467  16.9864  17.4755  21.8286  23.6421  25.5962

          k = 0.1587 0.3175 0.2400 (  2915 PWs)   bands (ev):

   -86.7981 -47.2672 -47.1718 -47.1310   5.7535  11.2881  12.7348  13.8649
    14.4006  14.8886  15.8899  17.7925  22.2765  23.4602  26.9675

          k = 0.1587 0.3175 0.3600 (  2909 PWs)   bands (ev):

   -86.7980 -47.2682 -47.1717 -47.1310   6.4287  10.1586  12.8945  13.8552
    14.6041  14.9156  15.1056  18.3869  22.0217  22.7216  27.7127

          k = 0.1587 0.4762 0.0000 (  2912 PWs)   bands (ev):

   -86.7955 -47.2623 -47.2020 -47.1286   7.0839   9.9506  12.7799  13.7726
    14.4890  14.7426  16.4748  20.7738  22.1148  23.6230  23.9026

          k = 0.1587 0.4762 0.1200 (  2911 PWs)   bands (ev):

   -86.7954 -47.2629 -47.2020 -47.1285   7.2516  10.1006  12.6163  13.8088
    14.5752  14.6922  16.4098  19.0714  21.8578  23.3029  25.2195

          k = 0.1587 0.4762 0.2400 (  2915 PWs)   bands (ev):

   -86.7954 -47.2642 -47.2018 -47.1284   7.6816  10.5063  12.2367  13.7569
    14.5751  14.8651  16.0170  17.5654  19.9758  23.6853  27.1474

          k = 0.1587 0.4762 0.3600 (  2919 PWs)   bands (ev):

   -86.7954 -47.2652 -47.2017 -47.1284   8.1067  11.0051  11.7889  13.5153
    14.7582  15.0969  15.2657  17.0755  18.8438  23.9869  27.8198

          k = 0.3175 0.3175 0.0000 (  2915 PWs)   bands (ev):

   -86.7948 -47.2616 -47.1689 -47.1678   6.2469  12.7574  13.2727  13.2746
    14.1223  14.6463  16.7546  19.3017  19.9672  22.4556  26.3747

          k = 0.3175 0.3175 0.1200 (  2915 PWs)   bands (ev):

   -86.7948 -47.2622 -47.1689 -47.1677   6.4405  12.5687  13.0733  13.3522
    14.2375  14.6868  17.0767  18.4371  19.2877  24.2636  26.3183

          k = 0.3175 0.3175 0.2400 (  2920 PWs)   bands (ev):

   -86.7948 -47.2635 -47.1687 -47.1676   6.9629  11.8626  12.7569  13.7968
    14.3763  14.7636  16.7079  17.9278  19.2357  24.3308  24.8083

          k = 0.3175 0.3175 0.3600 (  2926 PWs)   bands (ev):

   -86.7947 -47.2645 -47.1686 -47.1675   7.5446  11.0681  12.5637  14.4423
    14.5139  14.8244  15.4856  18.9281  19.1670  22.5522  23.9829

          k = 0.3175 0.4762 0.0000 (  2919 PWs)   bands (ev):

   -86.7922 -47.2588 -47.1981 -47.1654   8.2361  10.9726  13.1902  13.6423
    14.0729  14.4201  16.3410  20.0368  21.6213  22.6003  24.4629

          k = 0.3175 0.4762 0.1200 (  2914 PWs)   bands (ev):

   -86.7921 -47.2593 -47.1980 -47.1654   8.3869  11.0802  12.7061  13.8922
    14.2963  14.5666  16.4132  19.8490  20.1867  22.7694  23.2194

          k = 0.3175 0.4762 0.2400 (  2925 PWs)   bands (ev):

   -86.7921 -47.2606 -47.1979 -47.1653   8.7742  11.2999  12.1652  14.0575
    14.5545  15.1419  16.5256  18.0520  19.7996  21.2195  23.1796

          k = 0.3175 0.4762 0.3600 (  2918 PWs)   bands (ev):

   -86.7921 -47.2616 -47.1978 -47.1652   9.1612  11.4328  11.7998  14.4789
    14.8154  15.5801  16.0953  17.0727  19.3049  20.3877  23.5462

          k = 0.4762 0.4762 0.0000 (  2950 PWs)   bands (ev):

   -86.7895 -47.2559 -47.1950 -47.1948   9.8150  12.0675  12.9015  13.5331
    13.6669  14.1592  16.1843  18.5426  20.1366  22.1155  26.1603

          k = 0.4762 0.4762 0.1200 (  2934 PWs)   bands (ev):

   -86.7895 -47.2565 -47.1950 -47.1947   9.9482  11.9965  12.3538  13.5431
    14.4342  14.6454  16.2407  18.2085  19.9843  21.4600  24.4584

          k = 0.4762 0.4762 0.2400 (  2926 PWs)   bands (ev):

   -86.7895 -47.2577 -47.1949 -47.1946  10.2756  11.7998  11.8012  14.0933
    15.4226  15.4598  16.6339  17.3699  19.1613  20.6513  22.2905

          k = 0.4762 0.4762 0.3600 (  2936 PWs)   bands (ev):

   -86.7894 -47.2587 -47.1948 -47.1945  10.5639  11.5107  11.6859  14.9705
    15.7652  16.0695  16.7526  17.7453  17.9278  20.0258  20.3581

     the Fermi energy is    17.0160 ev

!    total energy              =    -344.08182011 Ry
     estimated scf accuracy    <          7.7E-10 Ry
     smearing contrib. (-TS)   =      -0.00006920 Ry
     internal energy E=F+TS    =    -344.08175091 Ry

     The total energy is F=E-TS. E is the sum of the following terms:
     one-electron contribution =    -222.24033243 Ry
     hartree contribution      =     124.92858376 Ry
     xc contribution           =     -46.19779939 Ry
     ewald contribution        =    -200.57220285 Ry

     convergence has been achieved in   9 iterations

     Forces acting on atoms (cartesian axes, Ry/au):

     atom    1 type  1   force =     0.00000000    0.00000000    0.00000000
     atom    2 type  2   force =     0.00000000    0.00000000    0.00000000

     Total force =     0.000000     Total SCF correction =     0.000000


     Computing stress (Cartesian axis) and pressure

          total   stress  (Ry/bohr**3)                   (kbar)     P=       51.26
   0.00052265   0.00000000   0.00000000           76.88        0.00        0.00
   0.00000000   0.00052265   0.00000000            0.00       76.88        0.00
   0.00000000   0.00000000  -0.00000000            0.00        0.00       -0.00


     Writing all to output data dir ./tmp/SiNi-relax.save/ :
     XML data file, charge density, pseudopotentials, collected wavefunctions

     init_run     :      2.25s CPU      2.35s WALL (       2 calls)
     electrons    :     63.27s CPU     65.46s WALL (       6 calls)
     update_pot   :      0.07s CPU      0.07s WALL (       4 calls)
     forces       :      1.59s CPU      1.64s WALL (       6 calls)
     stress       :      6.16s CPU      6.26s WALL (       6 calls)

     Called by init_run:
     wfcinit      :      1.37s CPU      1.44s WALL (       2 calls)
     potinit      :      0.22s CPU      0.24s WALL (       2 calls)
     hinit0       :      0.62s CPU      0.62s WALL (       2 calls)

     Called by electrons:
     c_bands      :     56.38s CPU     58.30s WALL (      34 calls)
     sum_band     :      6.44s CPU      6.68s WALL (      34 calls)
     v_of_rho     :      0.48s CPU      0.51s WALL (      36 calls)
     mix_rho      :      0.04s CPU      0.05s WALL (      34 calls)

     Called by c_bands:
     init_us_2    :      1.78s CPU      1.87s WALL (    3280 calls)
     cegterg      :     53.53s CPU     55.37s WALL (    1360 calls)

     Called by *egterg:
     cdiaghg      :      0.66s CPU      0.69s WALL (    4666 calls)
     h_psi        :     40.42s CPU     42.13s WALL (    5066 calls)
     g_psi        :      0.28s CPU      0.30s WALL (    3626 calls)

     Called by h_psi:
     h_psi:calbec :      4.97s CPU      5.10s WALL (    5066 calls)
     vloc_psi     :     30.55s CPU     32.07s WALL (    5066 calls)
                                        0.00s GPU  (    5066 calls)
     add_vuspsi   :      4.65s CPU      4.72s WALL (    5066 calls)

     General routines
     calbec       :     10.15s CPU     10.35s WALL (    9146 calls)
     fft          :      0.23s CPU      0.23s WALL (     512 calls)
     ffts         :      0.02s CPU      0.02s WALL (      34 calls)
     fftw         :     31.24s CPU     32.95s WALL (  132140 calls)


     PWSCF        :   1m13.44s CPU   1m15.92s WALL


   This run was terminated on:  20:14:30   7Jan2026            

=------------------------------------------------------------------------------=
   JOB DONE.
=------------------------------------------------------------------------------=
