
     Program PWSCF v.7.5 starts on 11Jan2026 at 20: 5:49 

     This program is part of the open-source Quantum ESPRESSO suite
     for quantum simulation of materials; please cite
         "P. Giannozzi et al., J. Phys.:Condens. Matter 21 395502 (2009);
         "P. Giannozzi et al., J. Phys.:Condens. Matter 29 465901 (2017);
         "P. Giannozzi et al., J. Chem. Phys. 152 154105 (2020);
          URL http://www.quantum-espresso.org", 
     in publications or presentations arising from this work. More details at
     http://www.quantum-espresso.org/quote

     Serial version
     729 MiB available memory on the printing compute node when the environment starts

     Waiting for input...
     Reading input from standard input

     Current dimensions of program PWSCF are:
     Max number of different atomic species (ntypx) = 10
     Max number of k-points (npk) =  40000
     Max angular momentum in pseudopotentials (lmaxx) =  4

     Atomic positions and unit cell read from directory:
     ./tmp/CdTe.save/

     [opt_tetra]  Optimized tetrahedron method is used.


     G-vector sticks info
     --------------------
     sticks:   dense  smooth     PW     G-vecs:    dense   smooth      PW
     Sum        1507    1507    439                38781    38781    6183

     Using Slab Decomposition



     bravais-lattice index     =            2
     lattice parameter (alat)  =      12.5000  a.u.
     unit-cell volume          =     488.2812 (a.u.)^3
     number of atoms/cell      =            2
     number of atomic types    =            2
     number of electrons       =        36.00
     number of Kohn-Sham states=           22
     kinetic-energy cutoff     =      70.0000  Ry
     charge density cutoff     =     280.0000  Ry
     Exchange-correlation= PBE
                           (   1   4   3   4   0   0   0)

     celldm(1)=  12.500000  celldm(2)=   0.000000  celldm(3)=   0.000000
     celldm(4)=   0.000000  celldm(5)=   0.000000  celldm(6)=   0.000000

     crystal axes: (cart. coord. in units of alat)
               a(1) = (  -0.500000   0.000000   0.500000 )  
               a(2) = (   0.000000   0.500000   0.500000 )  
               a(3) = (  -0.500000   0.500000   0.000000 )  

     reciprocal axes: (cart. coord. in units 2 pi/alat)
               b(1) = ( -1.000000 -1.000000  1.000000 )  
               b(2) = (  1.000000  1.000000  1.000000 )  
               b(3) = ( -1.000000  1.000000 -1.000000 )  


     PseudoPot. # 1 for Cd read from file:
     ./PSEUDO/Cd_ONCV_PBE-1.2.upf
     MD5 check sum: 810a600e5a5ac944c8c8f48f0d721646
     Pseudo is Norm-conserving, Zval = 20.0
     Generated using ONCVPSP code by D. R. Hamann
     Using radial grid of  602 points,  6 beta functions with: 
                l(1) =   0
                l(2) =   0
                l(3) =   1
                l(4) =   1
                l(5) =   2
                l(6) =   2

     PseudoPot. # 2 for Te read from file:
     ./PSEUDO/Te_ONCV_PBE-1.2.upf
     MD5 check sum: dd4de4dac1e38587f63aaf3700bb29d3
     Pseudo is Norm-conserving, Zval = 16.0
     Generated using ONCVPSP code by D. R. Hamann
     Using radial grid of  602 points,  6 beta functions with: 
                l(1) =   0
                l(2) =   0
                l(3) =   1
                l(4) =   1
                l(5) =   2
                l(6) =   2

     atomic species   valence    mass     pseudopotential
     Cd               20.00   112.40000     Cd( 1.00)
     Te               16.00   127.60000     Te( 1.00)

     24 Sym. Ops. (no inversion) found



   Cartesian axes

     site n.     atom                  positions (alat units)
         1        Cd     tau(   1) = (   0.0000000   0.0000000   0.0000000  )
         2        Te     tau(   2) = (  -0.2500000   0.2500000   0.2500000  )

     number of k points=   413 (tetrahedron method)

     Number of k-points >= 100: set verbosity='high' to print them.

     Dense  grid:    38781 G-vectors     FFT dimensions: (  48,  48,  48)

     Estimated max dynamical RAM per process >      27.54 MB

     The potential is recalculated from file :
     ./tmp/CdTe.save/charge-density

     Starting wfcs are random

     Band Structure Calculation
     Davidson diagonalization with overlap

     ethr =  2.78E-08,  avg # of iterations = 25.2

     total cpu time spent up to now is      461.9 secs

     End of band structure calculation

     Number of k-points >= 100: set verbosity='high' to print the bands.

     the Fermi energy is     7.8333 ev
     (compare with:     7.8333 eV, computed in scf)

     Writing all to output data dir ./tmp/CdTe.save/ :
     XML data file, pseudopotentials, collected wavefunctions

     init_run     :      0.24s CPU      0.26s WALL (       1 calls)
     electrons    :    450.29s CPU    459.49s WALL (       1 calls)

     Called by init_run:
     wfcinit      :      0.00s CPU      0.00s WALL (       1 calls)
     potinit      :      0.04s CPU      0.05s WALL (       1 calls)
     hinit0       :      0.04s CPU      0.04s WALL (       1 calls)

     Called by electrons:
     c_bands      :    449.37s CPU    458.56s WALL (       1 calls)
     v_of_rho     :      0.03s CPU      0.04s WALL (       1 calls)

     Called by c_bands:
     init_us_2    :      0.38s CPU      0.66s WALL (     413 calls)
     cegterg      :    428.63s CPU    436.29s WALL (     795 calls)

     Called by *egterg:
     cdiaghg      :      4.44s CPU      4.54s WALL (   10815 calls)
     h_psi        :    298.87s CPU    305.77s WALL (   11610 calls)
     g_psi        :      2.03s CPU      2.10s WALL (   10402 calls)

     Called by h_psi:
     h_psi:calbec :     27.89s CPU     28.06s WALL (   11610 calls)
     vloc_psi     :    245.08s CPU    250.81s WALL (   11610 calls)
                                        0.00s GPU  (   11610 calls)
     add_vuspsi   :     24.72s CPU     24.90s WALL (   11610 calls)

     General routines
     calbec       :     27.78s CPU     28.01s WALL (   11610 calls)
     fft          :      0.02s CPU      0.02s WALL (      10 calls)
     fftw         :    221.82s CPU    226.71s WALL (  348310 calls)
     davcio       :      0.07s CPU      0.61s WALL (     826 calls)


     PWSCF        :   7m32.89s CPU   7m42.93s WALL


   This run was terminated on:  20:13:32  11Jan2026            

=------------------------------------------------------------------------------=
   JOB DONE.
=------------------------------------------------------------------------------=
