
     Program BANDS v.7.5 starts on 11Jan2026 at 19:56:53 

     This program is part of the open-source Quantum ESPRESSO suite
     for quantum simulation of materials; please cite
         "P. Giannozzi et al., J. Phys.:Condens. Matter 21 395502 (2009);
         "P. Giannozzi et al., J. Phys.:Condens. Matter 29 465901 (2017);
         "P. Giannozzi et al., J. Chem. Phys. 152 154105 (2020);
          URL http://www.quantum-espresso.org", 
     in publications or presentations arising from this work. More details at
     http://www.quantum-espresso.org/quote

     Serial version
     583 MiB available memory on the printing compute node when the environment starts


     Reading xml data from directory:

     ./tmp/CdTe.save/

     IMPORTANT: XC functional enforced from input :
     Exchange-correlation= PBE
                           (   1   4   3   4   0   0   0)
     Any further DFT definition will be discarded
     Please, verify this is what you really want


     G-vector sticks info
     --------------------
     sticks:   dense  smooth     PW     G-vecs:    dense   smooth      PW
     Sum        1507    1507    433                38781    38781    5961

     Using Slab Decomposition

     Reading collected, re-writing distributed wavefunctions
     high-symmetry point: -1.0000 0.5000 0.0000   x coordinate   0.0000
     high-symmetry point: -0.5000 0.5000 0.5000   x coordinate   0.7071
     high-symmetry point:  0.0000 0.0000 0.0000   x coordinate   1.5731
     high-symmetry point: -1.0000 0.0000 0.0000   x coordinate   2.5731
     high-symmetry point: -1.0000 0.5000 0.0000   x coordinate   3.0731
     high-symmetry point: -0.5000 0.5000 0.5000   x coordinate   3.7802

     Plottable bands (eV) written to file CdTe.bands.dat.gnu
     Bands written to file CdTe.bands.dat

 **************************************************************************

                    xk=(  -1.00000,   0.50000,   0.00000  )

     point group S_4 (-4)   
     there are  4 classes
     the character table:

       E     S4^3  C2    S4   
A      1.00  1.00  1.00  1.00
B      1.00 -1.00  1.00 -1.00
E      1.00  0.00 -1.00  0.00
E*     1.00  0.00 -1.00  0.00
     imaginary part
A      0.00  0.00  0.00  0.00
B      0.00  0.00  0.00  0.00
E      0.00  1.00  0.00 -1.00
E*     0.00 -1.00  0.00  1.00

     the symmetry operations in each class and the name of the first element:

     E        1
                                                                 
     S4^3     3
                                                                 
     C2       2
                                                                 
     S4       4
                                                                 

     Band symmetry, S_4 (-4)    point group:

     e(  1 -  1) =    -94.42676  eV     1   --> A    W_1       
     e(  2 -  4) =    -55.46597  eV     3   --> B    W_3       
     e(  2 -  4) =    -55.46597  eV     3   --> E    W_4       
     e(  2 -  4) =    -55.46597  eV     3   --> E*   W_2       
     e(  5 -  6) =    -28.29358  eV     2   --> A    W_1       
     e(  5 -  6) =    -28.29358  eV     2   --> B    W_3       
     e(  7 -  7) =    -28.29313  eV     1   --> E*   W_2       
     e(  8 -  8) =    -28.28690  eV     1   --> E*   W_2       
     e(  9 -  9) =    -28.28670  eV     1   --> E    W_4       
     e( 10 - 10) =     -2.76223  eV     1   --> E    W_4       
     e( 11 - 11) =     -0.34981  eV     1   --> E*   W_2       
     e( 12 - 12) =     -0.34179  eV     1   --> B    W_3       
     e( 13 - 13) =     -0.25612  eV     1   --> B    W_3       
     e( 14 - 14) =     -0.23002  eV     1   --> A    W_1       
     e( 15 - 15) =      0.25230  eV     1   --> E    W_4       
     e( 16 - 16) =      3.74182  eV     1   --> A    W_1       
     e( 17 - 17) =      5.55452  eV     1   --> B    W_3       
     e( 18 - 18) =      5.69366  eV     1   --> E*   W_2       
     e( 19 - 19) =     11.67770  eV     1   --> A    W_1       
     e( 20 - 20) =     12.34295  eV     1   --> E*   W_2       
     e( 21 - 21) =     13.14680  eV     1   --> E    W_4       
     e( 22 - 22) =     13.98782  eV     1   --> B    W_3       
     e( 23 - 23) =     16.96705  eV     1   --> B    W_3       
     e( 24 - 24) =     18.64360  eV     1   --> E*   W_2       

 **************************************************************************

 **************************************************************************

                    xk=(  -0.98750,   0.50000,   0.01250  )

     point group C_1 (1)    
     there are  1 classes
     the character table:

       E    
A      1.00

     the symmetry operations in each class and the name of the first element:

     E        1
                                                                 

     Band symmetry, C_1 (1)     point group:

     e(  1 -  1) =    -94.42676  eV     1   --> A              
     e(  2 -  4) =    -55.46597  eV     3   -->   3 A              
     e(  5 -  6) =    -28.29358  eV     2   -->   2 A              
     e(  7 -  7) =    -28.29313  eV     1   --> A              
     e(  8 -  8) =    -28.28690  eV     1   --> A              
     e(  9 -  9) =    -28.28670  eV     1   --> A              
     e( 10 - 10) =     -2.76239  eV     1   --> A              
     e( 11 - 11) =     -0.34993  eV     1   --> A              
     e( 12 - 12) =     -0.34182  eV     1   --> A              
     e( 13 - 13) =     -0.25610  eV     1   --> A              
     e( 14 - 14) =     -0.23001  eV     1   --> A              
     e( 15 - 15) =      0.25194  eV     1   --> A              
     e( 16 - 16) =      3.74220  eV     1   --> A              
     e( 17 - 17) =      5.54760  eV     1   --> A              
     e( 18 - 18) =      5.70312  eV     1   --> A              
     e( 19 - 19) =     11.67359  eV     1   --> A              
     e( 20 - 20) =     12.34496  eV     1   --> A              
     e( 21 - 21) =     13.14413  eV     1   --> A              
     e( 22 - 22) =     13.99610  eV     1   --> A              
     e( 23 - 23) =     16.95230  eV     1   --> A              
     e( 24 - 24) =     18.61128  eV     1   --> A              

 **************************************************************************

 **************************************************************************

                    xk=(  -0.97500,   0.50000,   0.02500  )

     Band symmetry, C_1 (1)     point group:

     e(  1 -  1) =    -94.42676  eV     1   --> A              
     e(  2 -  4) =    -55.46597  eV     3   -->   3 A              
     e(  5 -  6) =    -28.29358  eV     2   -->   2 A              
     e(  7 -  7) =    -28.29313  eV     1   --> A              
     e(  8 -  8) =    -28.28690  eV     1   --> A              
     e(  9 -  9) =    -28.28670  eV     1   --> A              
     e( 10 - 10) =     -2.76286  eV     1   --> A              
     e( 11 - 11) =     -0.35026  eV     1   --> A              
     e( 12 - 12) =     -0.34193  eV     1   --> A              
     e( 13 - 13) =     -0.25604  eV     1   --> A              
     e( 14 - 14) =     -0.22998  eV     1   --> A              
     e( 15 - 15) =      0.25085  eV     1   --> A              
     e( 16 - 16) =      3.74332  eV     1   --> A              
     e( 17 - 17) =      5.53105  eV     1   --> A              
     e( 18 - 18) =      5.72729  eV     1   --> A              
     e( 19 - 19) =     11.66151  eV     1   --> A              
     e( 20 - 20) =     12.35057  eV     1   --> A              
     e( 21 - 21) =     13.13685  eV     1   --> A              
     e( 22 - 22) =     14.02034  eV     1   --> A              
     e( 23 - 23) =     16.90890  eV     1   --> A              
     e( 24 - 24) =     18.54273  eV     1   --> A              

 **************************************************************************

 **************************************************************************

                    xk=(  -0.96250,   0.50000,   0.03750  )

     Band symmetry, C_1 (1)     point group:

     e(  1 -  1) =    -94.42676  eV     1   --> A              
     e(  2 -  4) =    -55.46597  eV     3   -->   3 A              
     e(  5 -  6) =    -28.29358  eV     2   -->   2 A              
     e(  7 -  7) =    -28.29313  eV     1   --> A              
     e(  8 -  8) =    -28.28690  eV     1   --> A              
     e(  9 -  9) =    -28.28670  eV     1   --> A              
     e( 10 - 10) =     -2.76364  eV     1   --> A              
     e( 11 - 11) =     -0.35081  eV     1   --> A              
     e( 12 - 12) =     -0.34213  eV     1   --> A              
     e( 13 - 13) =     -0.25594  eV     1   --> A              
     e( 14 - 14) =     -0.22993  eV     1   --> A              
     e( 15 - 15) =      0.24906  eV     1   --> A              
     e( 16 - 16) =      3.74509  eV     1   --> A              
     e( 17 - 17) =      5.51120  eV     1   --> A              
     e( 18 - 18) =      5.75989  eV     1   --> A              
     e( 19 - 19) =     11.64213  eV     1   --> A              
     e( 20 - 20) =     12.35865  eV     1   --> A              
     e( 21 - 21) =     13.12695  eV     1   --> A              
     e( 22 - 22) =     14.05902  eV     1   --> A              
     e( 23 - 23) =     16.83920  eV     1   --> A              
     e( 24 - 24) =     18.46890  eV     1   --> A              

 **************************************************************************

 **************************************************************************

                    xk=(  -0.95000,   0.50000,   0.05000  )

     Band symmetry, C_1 (1)     point group:

     e(  1 -  1) =    -94.42676  eV     1   --> A              
     e(  2 -  4) =    -55.46597  eV     3   -->   3 A              
     e(  5 -  6) =    -28.29357  eV     2   -->   2 A              
     e(  7 -  7) =    -28.29313  eV     1   --> A              
     e(  8 -  8) =    -28.28689  eV     1   --> A              
     e(  9 -  9) =    -28.28670  eV     1   --> A              
     e( 10 - 10) =     -2.76472  eV     1   --> A              
     e( 11 - 11) =     -0.35154  eV     1   --> A              
     e( 12 - 12) =     -0.34243  eV     1   --> A              
     e( 13 - 13) =     -0.25579  eV     1   --> A              
     e( 14 - 14) =     -0.22986  eV     1   --> A              
     e( 15 - 15) =      0.24659  eV     1   --> A              
     e( 16 - 16) =      3.74741  eV     1   --> A              
     e( 17 - 17) =      5.49169  eV     1   --> A              
     e( 18 - 18) =      5.79733  eV     1   --> A              
     e( 19 - 19) =     11.61635  eV     1   --> A              
     e( 20 - 20) =     12.36758  eV     1   --> A              
     e( 21 - 21) =     13.11706  eV     1   --> A              
     e( 22 - 22) =     14.11010  eV     1   --> A              
     e( 23 - 23) =     16.74672  eV     1   --> A              
     e( 24 - 24) =     18.40039  eV     1   --> A              

 **************************************************************************

 **************************************************************************

                    xk=(  -0.93750,   0.50000,   0.06250  )

     Band symmetry, C_1 (1)     point group:

     e(  1 -  1) =    -94.42676  eV     1   --> A              
     e(  2 -  4) =    -55.46597  eV     3   -->   3 A              
     e(  5 -  6) =    -28.29357  eV     2   -->   2 A              
     e(  7 -  7) =    -28.29314  eV     1   --> A              
     e(  8 -  8) =    -28.28689  eV     1   --> A              
     e(  9 -  9) =    -28.28670  eV     1   --> A              
     e( 10 - 10) =     -2.76611  eV     1   --> A              
     e( 11 - 11) =     -0.35245  eV     1   --> A              
     e( 12 - 12) =     -0.34286  eV     1   --> A              
     e( 13 - 13) =     -0.25559  eV     1   --> A              
     e( 14 - 14) =     -0.22977  eV     1   --> A              
     e( 15 - 15) =      0.24345  eV     1   --> A              
     e( 16 - 16) =      3.75011  eV     1   --> A              
     e( 17 - 17) =      5.47435  eV     1   --> A              
     e( 18 - 18) =      5.83785  eV     1   --> A              
     e( 19 - 19) =     11.58511  eV     1   --> A              
     e( 20 - 20) =     12.37556  eV     1   --> A              
     e( 21 - 21) =     13.10998  eV     1   --> A              
     e( 22 - 22) =     14.17155  eV     1   --> A              
     e( 23 - 23) =     16.63557  eV     1   --> A              
     e( 24 - 24) =     18.33942  eV     1   --> A              

 **************************************************************************

 **************************************************************************

                    xk=(  -0.92500,   0.50000,   0.07500  )

     Band symmetry, C_1 (1)     point group:

     e(  1 -  1) =    -94.42676  eV     1   --> A              
     e(  2 -  4) =    -55.46597  eV     3   -->   3 A              
     e(  5 -  6) =    -28.29357  eV     2   -->   2 A              
     e(  7 -  7) =    -28.29314  eV     1   --> A              
     e(  8 -  8) =    -28.28689  eV     1   --> A              
     e(  9 -  9) =    -28.28670  eV     1   --> A              
     e( 10 - 10) =     -2.76778  eV     1   --> A              
     e( 11 - 11) =     -0.35352  eV     1   --> A              
     e( 12 - 12) =     -0.34342  eV     1   --> A              
     e( 13 - 13) =     -0.25533  eV     1   --> A              
     e( 14 - 14) =     -0.22966  eV     1   --> A              
     e( 15 - 15) =      0.23970  eV     1   --> A              
     e( 16 - 16) =      3.75300  eV     1   --> A              
     e( 17 - 17) =      5.46021  eV     1   --> A              
     e( 18 - 18) =      5.88052  eV     1   --> A              
     e( 19 - 19) =     11.54925  eV     1   --> A              
     e( 20 - 20) =     12.38097  eV     1   --> A              
     e( 21 - 21) =     13.10815  eV     1   --> A              
     e( 22 - 22) =     14.24158  eV     1   --> A              
     e( 23 - 23) =     16.50994  eV     1   --> A              
     e( 24 - 24) =     18.28549  eV     1   --> A              

 **************************************************************************

 **************************************************************************

                    xk=(  -0.91250,   0.50000,   0.08750  )

     Band symmetry, C_1 (1)     point group:

     e(  1 -  1) =    -94.42676  eV     1   --> A              
     e(  2 -  4) =    -55.46597  eV     3   -->   3 A              
     e(  5 -  6) =    -28.29357  eV     2   -->   2 A              
     e(  7 -  7) =    -28.29315  eV     1   --> A              
     e(  8 -  8) =    -28.28689  eV     1   --> A              
     e(  9 -  9) =    -28.28671  eV     1   --> A              
     e( 10 - 10) =     -2.76974  eV     1   --> A              
     e( 11 - 11) =     -0.35472  eV     1   --> A              
     e( 12 - 12) =     -0.34413  eV     1   --> A              
     e( 13 - 13) =     -0.25501  eV     1   --> A              
     e( 14 - 14) =     -0.22953  eV     1   --> A              
     e( 15 - 15) =      0.23537  eV     1   --> A              
     e( 16 - 16) =      3.75585  eV     1   --> A              
     e( 17 - 17) =      5.44993  eV     1   --> A              
     e( 18 - 18) =      5.92477  eV     1   --> A              
     e( 19 - 19) =     11.50947  eV     1   --> A              
     e( 20 - 20) =     12.38265  eV     1   --> A              
     e( 21 - 21) =     13.11332  eV     1   --> A              
     e( 22 - 22) =     14.31869  eV     1   --> A              
     e( 23 - 23) =     16.37368  eV     1   --> A              
     e( 24 - 24) =     18.23730  eV     1   --> A              

 **************************************************************************

 **************************************************************************

                    xk=(  -0.90000,   0.50000,   0.10000  )

     Band symmetry, C_1 (1)     point group:

     e(  1 -  1) =    -94.42676  eV     1   --> A              
     e(  2 -  4) =    -55.46597  eV     3   -->   3 A              
     e(  5 -  6) =    -28.29357  eV     2   -->   2 A              
     e(  7 -  7) =    -28.29315  eV     1   --> A              
     e(  8 -  8) =    -28.28689  eV     1   --> A              
     e(  9 -  9) =    -28.28671  eV     1   --> A              
     e( 10 - 10) =     -2.77197  eV     1   --> A              
     e( 11 - 11) =     -0.35604  eV     1   --> A              
     e( 12 - 12) =     -0.34500  eV     1   --> A              
     e( 13 - 13) =     -0.25463  eV     1   --> A              
     e( 14 - 14) =     -0.22938  eV     1   --> A              
     e( 15 - 15) =      0.23050  eV     1   --> A              
     e( 16 - 16) =      3.75844  eV     1   --> A              
     e( 17 - 17) =      5.44400  eV     1   --> A              
     e( 18 - 18) =      5.97018  eV     1   --> A              
     e( 19 - 19) =     11.46630  eV     1   --> A              
     e( 20 - 20) =     12.38010  eV     1   --> A              
     e( 21 - 21) =     13.12642  eV     1   --> A              
     e( 22 - 22) =     14.40172  eV     1   --> A              
     e( 23 - 23) =     16.23012  eV     1   --> A              
     e( 24 - 24) =     18.19349  eV     1   --> A              

 **************************************************************************

 **************************************************************************

                    xk=(  -0.88750,   0.50000,   0.11250  )

     Band symmetry, C_1 (1)     point group:

     e(  1 -  1) =    -94.42676  eV     1   --> A              
     e(  2 -  4) =    -55.46597  eV     3   -->   3 A              
     e(  5 -  6) =    -28.29357  eV     2   -->   2 A              
     e(  7 -  7) =    -28.29316  eV     1   --> A              
     e(  8 -  8) =    -28.28689  eV     1   --> A              
     e(  9 -  9) =    -28.28671  eV     1   --> A              
     e( 10 - 10) =     -2.77445  eV     1   --> A              
     e( 11 - 11) =     -0.35747  eV     1   --> A              
     e( 12 - 12) =     -0.34604  eV     1   --> A              
     e( 13 - 13) =     -0.25417  eV     1   --> A              
     e( 14 - 14) =     -0.22921  eV     1   --> A              
     e( 15 - 15) =      0.22516  eV     1   --> A              
     e( 16 - 16) =      3.76052  eV     1   --> A              
     e( 17 - 17) =      5.44282  eV     1   --> A              
     e( 18 - 18) =      6.01643  eV     1   --> A              
     e( 19 - 19) =     11.42008  eV     1   --> A              
     e( 20 - 20) =     12.37354  eV     1   --> A              
     e( 21 - 21) =     13.14749  eV     1   --> A              
     e( 22 - 22) =     14.48974  eV     1   --> A              
     e( 23 - 23) =     16.08203  eV     1   --> A              
     e( 24 - 24) =     18.15289  eV     1   --> A              

 **************************************************************************

 **************************************************************************

                    xk=(  -0.87500,   0.50000,   0.12500  )

     Band symmetry, C_1 (1)     point group:

     e(  1 -  1) =    -94.42676  eV     1   --> A              
     e(  2 -  4) =    -55.46597  eV     3   -->   3 A              
     e(  5 -  6) =    -28.29357  eV     2   -->   2 A              
     e(  7 -  7) =    -28.29317  eV     1   --> A              
     e(  8 -  8) =    -28.28689  eV     1   --> A              
     e(  9 -  9) =    -28.28672  eV     1   --> A              
     e( 10 - 10) =     -2.77717  eV     1   --> A              
     e( 11 - 11) =     -0.35899  eV     1   --> A              
     e( 12 - 12) =     -0.34725  eV     1   --> A              
     e( 13 - 13) =     -0.25364  eV     1   --> A              
     e( 14 - 14) =     -0.22903  eV     1   --> A              
     e( 15 - 15) =      0.21938  eV     1   --> A              
     e( 16 - 16) =      3.76189  eV     1   --> A              
     e( 17 - 17) =      5.44669  eV     1   --> A              
     e( 18 - 18) =      6.06324  eV     1   --> A              
     e( 19 - 19) =     11.37106  eV     1   --> A              
     e( 20 - 20) =     12.36377  eV     1   --> A              
     e( 21 - 21) =     13.17585  eV     1   --> A              
     e( 22 - 22) =     14.58202  eV     1   --> A              
     e( 23 - 23) =     15.93174  eV     1   --> A              
     e( 24 - 24) =     18.11457  eV     1   --> A              

 **************************************************************************

 **************************************************************************

                    xk=(  -0.86250,   0.50000,   0.13750  )

     Band symmetry, C_1 (1)     point group:

     e(  1 -  1) =    -94.42676  eV     1   --> A              
     e(  2 -  4) =    -55.46597  eV     3   -->   3 A              
     e(  5 -  6) =    -28.29357  eV     2   -->   2 A              
     e(  7 -  7) =    -28.29317  eV     1   --> A              
     e(  8 -  8) =    -28.28688  eV     1   --> A              
     e(  9 -  9) =    -28.28672  eV     1   --> A              
     e( 10 - 10) =     -2.78012  eV     1   --> A              
     e( 11 - 11) =     -0.36058  eV     1   --> A              
     e( 12 - 12) =     -0.34862  eV     1   --> A              
     e( 13 - 13) =     -0.25302  eV     1   --> A              
     e( 14 - 14) =     -0.22884  eV     1   --> A              
     e( 15 - 15) =      0.21324  eV     1   --> A              
     e( 16 - 16) =      3.76234  eV     1   --> A              
     e( 17 - 17) =      5.45586  eV     1   --> A              
     e( 18 - 18) =      6.11037  eV     1   --> A              
     e( 19 - 19) =     11.31937  eV     1   --> A              
     e( 20 - 20) =     12.35192  eV     1   --> A              
     e( 21 - 21) =     13.21039  eV     1   --> A              
     e( 22 - 22) =     14.67799  eV     1   --> A              
     e( 23 - 23) =     15.78118  eV     1   --> A              
     e( 24 - 24) =     18.07779  eV     1   --> A              

 **************************************************************************

 **************************************************************************

                    xk=(  -0.85000,   0.50000,   0.15000  )

     Band symmetry, C_1 (1)     point group:

     e(  1 -  1) =    -94.42676  eV     1   --> A              
     e(  2 -  4) =    -55.46597  eV     3   -->   3 A              
     e(  5 -  6) =    -28.29357  eV     2   -->   2 A              
     e(  7 -  7) =    -28.29318  eV     1   --> A              
     e(  8 -  8) =    -28.28688  eV     1   --> A              
     e(  9 -  9) =    -28.28672  eV     1   --> A              
     e( 10 - 10) =     -2.78327  eV     1   --> A              
     e( 11 - 11) =     -0.36225  eV     1   --> A              
     e( 12 - 12) =     -0.35016  eV     1   --> A              
     e( 13 - 13) =     -0.25233  eV     1   --> A              
     e( 14 - 14) =     -0.22863  eV     1   --> A              
     e( 15 - 15) =      0.20678  eV     1   --> A              
     e( 16 - 16) =      3.76170  eV     1   --> A              
     e( 17 - 17) =      5.47048  eV     1   --> A              
     e( 18 - 18) =      6.15760  eV     1   --> A              
     e( 19 - 19) =     11.26508  eV     1   --> A              
     e( 20 - 20) =     12.33920  eV     1   --> A              
     e( 21 - 21) =     13.24973  eV     1   --> A              
     e( 22 - 22) =     14.77715  eV     1   --> A              
     e( 23 - 23) =     15.63203  eV     1   --> A              
     e( 24 - 24) =     18.04201  eV     1   --> A              

 **************************************************************************

 **************************************************************************

                    xk=(  -0.83750,   0.50000,   0.16250  )

     Band symmetry, C_1 (1)     point group:

     e(  1 -  1) =    -94.42676  eV     1   --> A              
     e(  2 -  4) =    -55.46597  eV     3   -->   3 A              
     e(  5 -  5) =    -28.29356  eV     1   --> A              
     e(  6 -  6) =    -28.29346  eV     1   --> A              
     e(  7 -  7) =    -28.29319  eV     1   --> A              
     e(  8 -  8) =    -28.28688  eV     1   --> A              
     e(  9 -  9) =    -28.28673  eV     1   --> A              
     e( 10 - 10) =     -2.78662  eV     1   --> A              
     e( 11 - 11) =     -0.36397  eV     1   --> A              
     e( 12 - 12) =     -0.35186  eV     1   --> A              
     e( 13 - 13) =     -0.25154  eV     1   --> A              
     e( 14 - 14) =     -0.22841  eV     1   --> A              
     e( 15 - 15) =      0.20007  eV     1   --> A              
     e( 16 - 16) =      3.75986  eV     1   --> A              
     e( 17 - 17) =      5.49066  eV     1   --> A              
     e( 18 - 18) =      6.20473  eV     1   --> A              
     e( 19 - 19) =     11.20822  eV     1   --> A              
     e( 20 - 20) =     12.32676  eV     1   --> A              
     e( 21 - 21) =     13.29240  eV     1   --> A              
     e( 22 - 22) =     14.87910  eV     1   --> A              
     e( 23 - 23) =     15.48584  eV     1   --> A              
     e( 24 - 24) =     18.00673  eV     1   --> A              

 **************************************************************************

 **************************************************************************

                    xk=(  -0.82500,   0.50000,   0.17500  )

     Band symmetry, C_1 (1)     point group:

     e(  1 -  1) =    -94.42676  eV     1   --> A              
     e(  2 -  4) =    -55.46597  eV     3   -->   3 A              
     e(  5 -  5) =    -28.29356  eV     1   --> A              
     e(  6 -  6) =    -28.29346  eV     1   --> A              
     e(  7 -  7) =    -28.29320  eV     1   --> A              
     e(  8 -  8) =    -28.28688  eV     1   --> A              
     e(  9 -  9) =    -28.28673  eV     1   --> A              
     e( 10 - 10) =     -2.79013  eV     1   --> A              
     e( 11 - 11) =     -0.36574  eV     1   --> A              
     e( 12 - 12) =     -0.35371  eV     1   --> A              
     e( 13 - 13) =     -0.25068  eV     1   --> A              
     e( 14 - 14) =     -0.22818  eV     1   --> A              
     e( 15 - 15) =      0.19316  eV     1   --> A              
     e( 16 - 16) =      3.75676  eV     1   --> A              
     e( 17 - 17) =      5.51640  eV     1   --> A              
     e( 18 - 18) =      6.25156  eV     1   --> A              
     e( 19 - 19) =     11.14878  eV     1   --> A              
     e( 20 - 20) =     12.31560  eV     1   --> A              
     e( 21 - 21) =     13.33689  eV     1   --> A              
     e( 22 - 22) =     14.98344  eV     1   --> A              
     e( 23 - 23) =     15.34413  eV     1   --> A              
     e( 24 - 24) =     17.97148  eV     1   --> A              

 **************************************************************************

 **************************************************************************

                    xk=(  -0.81250,   0.50000,   0.18750  )

     Band symmetry, C_1 (1)     point group:

     e(  1 -  1) =    -94.42676  eV     1   --> A              
     e(  2 -  4) =    -55.46597  eV     3   -->   3 A              
     e(  5 -  5) =    -28.29356  eV     1   --> A              
     e(  6 -  6) =    -28.29346  eV     1   --> A              
     e(  7 -  7) =    -28.29321  eV     1   --> A              
     e(  8 -  8) =    -28.28687  eV     1   --> A              
     e(  9 -  9) =    -28.28674  eV     1   --> A              
     e( 10 - 10) =     -2.79378  eV     1   --> A              
     e( 11 - 11) =     -0.36754  eV     1   --> A              
     e( 12 - 12) =     -0.35569  eV     1   --> A              
     e( 13 - 13) =     -0.24973  eV     1   --> A              
     e( 14 - 14) =     -0.22795  eV     1   --> A              
     e( 15 - 15) =      0.18610  eV     1   --> A              
     e( 16 - 16) =      3.75236  eV     1   --> A              
     e( 17 - 17) =      5.54765  eV     1   --> A              
     e( 18 - 18) =      6.29791  eV     1   --> A              
     e( 19 - 19) =     11.08677  eV     1   --> A              
     e( 20 - 20) =     12.30652  eV     1   --> A              
     e( 21 - 21) =     13.38158  eV     1   --> A              
     e( 22 - 22) =     15.08948  eV     1   --> A              
     e( 23 - 23) =     15.20877  eV     1   --> A              
     e( 24 - 24) =     17.93572  eV     1   --> A              

 **************************************************************************

 **************************************************************************

                    xk=(  -0.80000,   0.50000,   0.20000  )

     Band symmetry, C_1 (1)     point group:

     e(  1 -  1) =    -94.42676  eV     1   --> A              
     e(  2 -  4) =    -55.46597  eV     3   -->   3 A              
     e(  5 -  5) =    -28.29356  eV     1   --> A              
     e(  6 -  6) =    -28.29345  eV     1   --> A              
     e(  7 -  7) =    -28.29322  eV     1   --> A              
     e(  8 -  8) =    -28.28687  eV     1   --> A              
     e(  9 -  9) =    -28.28674  eV     1   --> A              
     e( 10 - 10) =     -2.79756  eV     1   --> A              
     e( 11 - 11) =     -0.36937  eV     1   --> A              
     e( 12 - 12) =     -0.35779  eV     1   --> A              
     e( 13 - 13) =     -0.24870  eV     1   --> A              
     e( 14 - 14) =     -0.22771  eV     1   --> A              
     e( 15 - 15) =      0.17895  eV     1   --> A              
     e( 16 - 16) =      3.74669  eV     1   --> A              
     e( 17 - 17) =      5.58430  eV     1   --> A              
     e( 18 - 18) =      6.34360  eV     1   --> A              
     e( 19 - 19) =     11.02217  eV     1   --> A              
     e( 20 - 20) =     12.30017  eV     1   --> A              
     e( 21 - 21) =     13.42474  eV     1   --> A              
     e( 22 - 22) =     15.07894  eV     1   --> A              
     e( 23 - 23) =     15.19934  eV     1   --> A              
     e( 24 - 24) =     17.89871  eV     1   --> A              

 **************************************************************************

 **************************************************************************

                    xk=(  -0.78750,   0.50000,   0.21250  )

     Band symmetry, C_1 (1)     point group:

     e(  1 -  1) =    -94.42676  eV     1   --> A              
     e(  2 -  4) =    -55.46597  eV     3   -->   3 A              
     e(  5 -  5) =    -28.29356  eV     1   --> A              
     e(  6 -  6) =    -28.29345  eV     1   --> A              
     e(  7 -  7) =    -28.29323  eV     1   --> A              
     e(  8 -  8) =    -28.28687  eV     1   --> A              
     e(  9 -  9) =    -28.28675  eV     1   --> A              
     e( 10 - 10) =     -2.80145  eV     1   --> A              
     e( 11 - 11) =     -0.37121  eV     1   --> A              
     e( 12 - 12) =     -0.35999  eV     1   --> A              
     e( 13 - 13) =     -0.24760  eV     1   --> A              
     e( 14 - 14) =     -0.22748  eV     1   --> A              
     e( 15 - 15) =      0.17175  eV     1   --> A              
     e( 16 - 16) =      3.73983  eV     1   --> A              
     e( 17 - 17) =      5.62617  eV     1   --> A              
     e( 18 - 18) =      6.38848  eV     1   --> A              
     e( 19 - 19) =     10.95499  eV     1   --> A              
     e( 20 - 20) =     12.29703  eV     1   --> A              
     e( 21 - 21) =     13.46439  eV     1   --> A              
     e( 22 - 22) =     14.96062  eV     1   --> A              
     e( 23 - 23) =     15.30860  eV     1   --> A              
     e( 24 - 24) =     17.85932  eV     1   --> A              

 **************************************************************************

 **************************************************************************

                    xk=(  -0.77500,   0.50000,   0.22500  )

     Band symmetry, C_1 (1)     point group:

     e(  1 -  1) =    -94.42676  eV     1   --> A              
     e(  2 -  4) =    -55.46597  eV     3   -->   3 A              
     e(  5 -  5) =    -28.29357  eV     1   --> A              
     e(  6 -  6) =    -28.29344  eV     1   --> A              
     e(  7 -  7) =    -28.29324  eV     1   --> A              
     e(  8 -  8) =    -28.28686  eV     1   --> A              
     e(  9 -  9) =    -28.28675  eV     1   --> A              
     e( 10 - 10) =     -2.80540  eV     1   --> A              
     e( 11 - 11) =     -0.37305  eV     1   --> A              
     e( 12 - 12) =     -0.36228  eV     1   --> A              
     e( 13 - 13) =     -0.24644  eV     1   --> A              
     e( 14 - 14) =     -0.22724  eV     1   --> A              
     e( 15 - 15) =      0.16457  eV     1   --> A              
     e( 16 - 16) =      3.73187  eV     1   --> A              
     e( 17 - 17) =      5.67301  eV     1   --> A              
     e( 18 - 18) =      6.43238  eV     1   --> A              
     e( 19 - 19) =     10.88527  eV     1   --> A              
     e( 20 - 20) =     12.29744  eV     1   --> A              
     e( 21 - 21) =     13.49824  eV     1   --> A              
     e( 22 - 22) =     14.85355  eV     1   --> A              
     e( 23 - 23) =     15.41930  eV     1   --> A              
     e( 24 - 24) =     17.81581  eV     1   --> A              

 **************************************************************************

 **************************************************************************

                    xk=(  -0.76250,   0.50000,   0.23750  )

     Band symmetry, C_1 (1)     point group:

     e(  1 -  1) =    -94.42676  eV     1   --> A              
     e(  2 -  4) =    -55.46597  eV     3   -->   3 A              
     e(  5 -  5) =    -28.29357  eV     1   --> A              
     e(  6 -  6) =    -28.29344  eV     1   --> A              
     e(  7 -  7) =    -28.29325  eV     1   --> A              
     e(  8 -  8) =    -28.28686  eV     1   --> A              
     e(  9 -  9) =    -28.28675  eV     1   --> A              
     e( 10 - 10) =     -2.80942  eV     1   --> A              
     e( 11 - 11) =     -0.37489  eV     1   --> A              
     e( 12 - 12) =     -0.36463  eV     1   --> A              
     e( 13 - 13) =     -0.24521  eV     1   --> A              
     e( 14 - 14) =     -0.22700  eV     1   --> A              
     e( 15 - 15) =      0.15743  eV     1   --> A              
     e( 16 - 16) =      3.72295  eV     1   --> A              
     e( 17 - 17) =      5.72454  eV     1   --> A              
     e( 18 - 18) =      6.47517  eV     1   --> A              
     e( 19 - 19) =     10.81304  eV     1   --> A              
     e( 20 - 20) =     12.30164  eV     1   --> A              
     e( 21 - 21) =     13.52370  eV     1   --> A              
     e( 22 - 22) =     14.76053  eV     1   --> A              
     e( 23 - 23) =     15.53062  eV     1   --> A              
     e( 24 - 24) =     17.76559  eV     1   --> A              

 **************************************************************************

 **************************************************************************

                    xk=(  -0.75000,   0.50000,   0.25000  )

     Band symmetry, C_1 (1)     point group:

     e(  1 -  1) =    -94.42676  eV     1   --> A              
     e(  2 -  4) =    -55.46597  eV     3   -->   3 A              
     e(  5 -  5) =    -28.29357  eV     1   --> A              
     e(  6 -  6) =    -28.29343  eV     1   --> A              
     e(  7 -  7) =    -28.29325  eV     1   --> A              
     e(  8 -  9) =    -28.28686  eV     2   -->   2 A              
     e( 10 - 10) =     -2.81346  eV     1   --> A              
     e( 11 - 11) =     -0.37672  eV     1   --> A              
     e( 12 - 12) =     -0.36703  eV     1   --> A              
     e( 13 - 13) =     -0.24394  eV     1   --> A              
     e( 14 - 14) =     -0.22677  eV     1   --> A              
     e( 15 - 15) =      0.15038  eV     1   --> A              
     e( 16 - 16) =      3.71322  eV     1   --> A              
     e( 17 - 17) =      5.78045  eV     1   --> A              
     e( 18 - 18) =      6.51669  eV     1   --> A              
     e( 19 - 19) =     10.73841  eV     1   --> A              
     e( 20 - 20) =     12.30976  eV     1   --> A              
     e( 21 - 21) =     13.53804  eV     1   --> A              
     e( 22 - 22) =     14.68415  eV     1   --> A              
     e( 23 - 23) =     15.64193  eV     1   --> A              
     e( 24 - 24) =     17.70532  eV     1   --> A              

 **************************************************************************

 **************************************************************************

                    xk=(  -0.73750,   0.50000,   0.26250  )

     Band symmetry, C_1 (1)     point group:

     e(  1 -  1) =    -94.42676  eV     1   --> A              
     e(  2 -  4) =    -55.46597  eV     3   -->   3 A              
     e(  5 -  5) =    -28.29357  eV     1   --> A              
     e(  6 -  6) =    -28.29343  eV     1   --> A              
     e(  7 -  7) =    -28.29326  eV     1   --> A              
     e(  8 -  9) =    -28.28686  eV     2   -->   2 A              
     e( 10 - 10) =     -2.81750  eV     1   --> A              
     e( 11 - 11) =     -0.37852  eV     1   --> A              
     e( 12 - 12) =     -0.36945  eV     1   --> A              
     e( 13 - 13) =     -0.24262  eV     1   --> A              
     e( 14 - 14) =     -0.22654  eV     1   --> A              
     e( 15 - 15) =      0.14346  eV     1   --> A              
     e( 16 - 16) =      3.70283  eV     1   --> A              
     e( 17 - 17) =      5.84036  eV     1   --> A              
     e( 18 - 18) =      6.55682  eV     1   --> A              
     e( 19 - 19) =     10.66147  eV     1   --> A              
     e( 20 - 20) =     12.32186  eV     1   --> A              
     e( 21 - 21) =     13.53897  eV     1   --> A              
     e( 22 - 22) =     14.62650  eV     1   --> A              
     e( 23 - 23) =     15.75240  eV     1   --> A              
     e( 24 - 24) =     17.63238  eV     1   --> A              

 **************************************************************************

 **************************************************************************

                    xk=(  -0.72500,   0.50000,   0.27500  )

     Band symmetry, C_1 (1)     point group:

     e(  1 -  1) =    -94.42676  eV     1   --> A              
     e(  2 -  4) =    -55.46597  eV     3   -->   3 A              
     e(  5 -  5) =    -28.29357  eV     1   --> A              
     e(  6 -  6) =    -28.29342  eV     1   --> A              
     e(  7 -  7) =    -28.29327  eV     1   --> A              
     e(  8 -  9) =    -28.28685  eV     2   -->   2 A              
     e( 10 - 10) =     -2.82152  eV     1   --> A              
     e( 11 - 11) =     -0.38029  eV     1   --> A              
     e( 12 - 12) =     -0.37188  eV     1   --> A              
     e( 13 - 13) =     -0.24127  eV     1   --> A              
     e( 14 - 14) =     -0.22632  eV     1   --> A              
     e( 15 - 15) =      0.13671  eV     1   --> A              
     e( 16 - 16) =      3.69195  eV     1   --> A              
     e( 17 - 17) =      5.90390  eV     1   --> A              
     e( 18 - 18) =      6.59544  eV     1   --> A              
     e( 19 - 19) =     10.58239  eV     1   --> A              
     e( 20 - 20) =     12.33792  eV     1   --> A              
     e( 21 - 21) =     13.52527  eV     1   --> A              
     e( 22 - 22) =     14.58847  eV     1   --> A              
     e( 23 - 23) =     15.86089  eV     1   --> A              
     e( 24 - 24) =     17.54746  eV     1   --> A              

 **************************************************************************

 **************************************************************************

                    xk=(  -0.71250,   0.50000,   0.28750  )

     Band symmetry, C_1 (1)     point group:

     e(  1 -  1) =    -94.42676  eV     1   --> A              
     e(  2 -  4) =    -55.46598  eV     3   -->   3 A              
     e(  5 -  5) =    -28.29357  eV     1   --> A              
     e(  6 -  6) =    -28.29341  eV     1   --> A              
     e(  7 -  7) =    -28.29328  eV     1   --> A              
     e(  8 -  9) =    -28.28685  eV     2   -->   2 A              
     e( 10 - 10) =     -2.82549  eV     1   --> A              
     e( 11 - 11) =     -0.38202  eV     1   --> A              
     e( 12 - 12) =     -0.37429  eV     1   --> A              
     e( 13 - 13) =     -0.23990  eV     1   --> A              
     e( 14 - 14) =     -0.22611  eV     1   --> A              
     e( 15 - 15) =      0.13015  eV     1   --> A              
     e( 16 - 16) =      3.68075  eV     1   --> A              
     e( 17 - 17) =      5.97066  eV     1   --> A              
     e( 18 - 18) =      6.63244  eV     1   --> A              
     e( 19 - 19) =     10.50137  eV     1   --> A              
     e( 20 - 20) =     12.35786  eV     1   --> A              
     e( 21 - 21) =     13.49747  eV     1   --> A              
     e( 22 - 22) =     14.56917  eV     1   --> A              
     e( 23 - 23) =     15.96574  eV     1   --> A              
     e( 24 - 24) =     17.45572  eV     1   --> A              

 **************************************************************************

 **************************************************************************

                    xk=(  -0.70000,   0.50000,   0.30000  )

     Band symmetry, C_1 (1)     point group:

     e(  1 -  1) =    -94.42676  eV     1   --> A              
     e(  2 -  4) =    -55.46598  eV     3   -->   3 A              
     e(  5 -  5) =    -28.29358  eV     1   --> A              
     e(  6 -  6) =    -28.29341  eV     1   --> A              
     e(  7 -  7) =    -28.29329  eV     1   --> A              
     e(  8 -  9) =    -28.28685  eV     2   -->   2 A              
     e( 10 - 10) =     -2.82939  eV     1   --> A              
     e( 11 - 11) =     -0.38370  eV     1   --> A              
     e( 12 - 12) =     -0.37667  eV     1   --> A              
     e( 13 - 13) =     -0.23852  eV     1   --> A              
     e( 14 - 14) =     -0.22591  eV     1   --> A              
     e( 15 - 15) =      0.12382  eV     1   --> A              
     e( 16 - 16) =      3.66937  eV     1   --> A              
     e( 17 - 17) =      6.04018  eV     1   --> A              
     e( 18 - 18) =      6.66772  eV     1   --> A              
     e( 19 - 19) =     10.41867  eV     1   --> A              
     e( 20 - 20) =     12.38153  eV     1   --> A              
     e( 21 - 21) =     13.45777  eV     1   --> A              
     e( 22 - 22) =     14.56592  eV     1   --> A              
     e( 23 - 23) =     16.06445  eV     1   --> A              
     e( 24 - 24) =     17.36490  eV     1   --> A              

 **************************************************************************

 **************************************************************************

                    xk=(  -0.68750,   0.50000,   0.31250  )

     Band symmetry, C_1 (1)     point group:

     e(  1 -  1) =    -94.42676  eV     1   --> A              
     e(  2 -  4) =    -55.46598  eV     3   -->   3 A              
     e(  5 -  5) =    -28.29358  eV     1   --> A              
     e(  6 -  6) =    -28.29340  eV     1   --> A              
     e(  7 -  7) =    -28.29330  eV     1   --> A              
     e(  8 -  9) =    -28.28684  eV     2   -->   2 A              
     e( 10 - 10) =     -2.83320  eV     1   --> A              
     e( 11 - 11) =     -0.38532  eV     1   --> A              
     e( 12 - 12) =     -0.37899  eV     1   --> A              
     e( 13 - 13) =     -0.23714  eV     1   --> A              
     e( 14 - 14) =     -0.22572  eV     1   --> A              
     e( 15 - 15) =      0.11775  eV     1   --> A              
     e( 16 - 16) =      3.65799  eV     1   --> A              
     e( 17 - 17) =      6.11198  eV     1   --> A              
     e( 18 - 18) =      6.70118  eV     1   --> A              
     e( 19 - 19) =     10.33461  eV     1   --> A              
     e( 20 - 20) =     12.40872  eV     1   --> A              
     e( 21 - 21) =     13.40932  eV     1   --> A              
     e( 22 - 22) =     14.57495  eV     1   --> A              
     e( 23 - 23) =     16.15330  eV     1   --> A              
     e( 24 - 24) =     17.28340  eV     1   --> A              

 **************************************************************************

 **************************************************************************

                    xk=(  -0.67500,   0.50000,   0.32500  )

     Band symmetry, C_1 (1)     point group:

     e(  1 -  1) =    -94.42676  eV     1   --> A              
     e(  2 -  4) =    -55.46598  eV     3   -->   3 A              
     e(  5 -  5) =    -28.29358  eV     1   --> A              
     e(  6 -  7) =    -28.29340  eV     2   -->   2 A              
     e(  8 -  9) =    -28.28684  eV     2   -->   2 A              
     e( 10 - 10) =     -2.83688  eV     1   --> A              
     e( 11 - 11) =     -0.38687  eV     1   --> A              
     e( 12 - 12) =     -0.38124  eV     1   --> A              
     e( 13 - 13) =     -0.23578  eV     1   --> A              
     e( 14 - 14) =     -0.22554  eV     1   --> A              
     e( 15 - 15) =      0.11196  eV     1   --> A              
     e( 16 - 16) =      3.64672  eV     1   --> A              
     e( 17 - 17) =      6.18556  eV     1   --> A              
     e( 18 - 18) =      6.73276  eV     1   --> A              
     e( 19 - 19) =     10.24956  eV     1   --> A              
     e( 20 - 20) =     12.43918  eV     1   --> A              
     e( 21 - 21) =     13.35544  eV     1   --> A              
     e( 22 - 22) =     14.59226  eV     1   --> A              
     e( 23 - 23) =     16.22698  eV     1   --> A              
     e( 24 - 24) =     17.21994  eV     1   --> A              

 **************************************************************************

 **************************************************************************

                    xk=(  -0.66250,   0.50000,   0.33750  )

     Band symmetry, C_1 (1)     point group:

     e(  1 -  1) =    -94.42676  eV     1   --> A              
     e(  2 -  4) =    -55.46598  eV     3   -->   3 A              
     e(  5 -  5) =    -28.29359  eV     1   --> A              
     e(  6 -  7) =    -28.29339  eV     2   -->   2 A              
     e(  8 -  9) =    -28.28684  eV     2   -->   2 A              
     e( 10 - 10) =     -2.84042  eV     1   --> A              
     e( 11 - 11) =     -0.38836  eV     1   --> A              
     e( 12 - 12) =     -0.38341  eV     1   --> A              
     e( 13 - 13) =     -0.23444  eV     1   --> A              
     e( 14 - 14) =     -0.22537  eV     1   --> A              
     e( 15 - 15) =      0.10647  eV     1   --> A              
     e( 16 - 16) =      3.63572  eV     1   --> A              
     e( 17 - 17) =      6.26035  eV     1   --> A              
     e( 18 - 18) =      6.76237  eV     1   --> A              
     e( 19 - 19) =     10.16401  eV     1   --> A              
     e( 20 - 20) =     12.47256  eV     1   --> A              
     e( 21 - 21) =     13.29902  eV     1   --> A              
     e( 22 - 22) =     14.61415  eV     1   --> A              
     e( 23 - 23) =     16.27915  eV     1   --> A              
     e( 24 - 24) =     17.18322  eV     1   --> A              

 **************************************************************************

 **************************************************************************

                    xk=(  -0.65000,   0.50000,   0.35000  )

     Band symmetry, C_1 (1)     point group:

     e(  1 -  1) =    -94.42676  eV     1   --> A              
     e(  2 -  4) =    -55.46598  eV     3   -->   3 A              
     e(  5 -  5) =    -28.29359  eV     1   --> A              
     e(  6 -  7) =    -28.29339  eV     2   -->   2 A              
     e(  8 -  9) =    -28.28684  eV     2   -->   2 A              
     e( 10 - 10) =     -2.84380  eV     1   --> A              
     e( 11 - 11) =     -0.38976  eV     1   --> A              
     e( 12 - 12) =     -0.38547  eV     1   --> A              
     e( 13 - 13) =     -0.23314  eV     1   --> A              
     e( 14 - 14) =     -0.22522  eV     1   --> A              
     e( 15 - 15) =      0.10130  eV     1   --> A              
     e( 16 - 16) =      3.62509  eV     1   --> A              
     e( 17 - 17) =      6.33575  eV     1   --> A              
     e( 18 - 18) =      6.78996  eV     1   --> A              
     e( 19 - 19) =     10.07849  eV     1   --> A              
     e( 20 - 20) =     12.50847  eV     1   --> A              
     e( 21 - 21) =     13.24235  eV     1   --> A              
     e( 22 - 22) =     14.63744  eV     1   --> A              
     e( 23 - 23) =     16.30500  eV     1   --> A              
     e( 24 - 24) =     17.17967  eV     1   --> A              

 **************************************************************************

 **************************************************************************

                    xk=(  -0.63750,   0.50000,   0.36250  )

     Band symmetry, C_1 (1)     point group:

     e(  1 -  1) =    -94.42676  eV     1   --> A              
     e(  2 -  4) =    -55.46598  eV     3   -->   3 A              
     e(  5 -  5) =    -28.29359  eV     1   --> A              
     e(  6 -  7) =    -28.29338  eV     2   -->   2 A              
     e(  8 -  9) =    -28.28683  eV     2   -->   2 A              
     e( 10 - 10) =     -2.84699  eV     1   --> A              
     e( 11 - 11) =     -0.39107  eV     1   --> A              
     e( 12 - 12) =     -0.38742  eV     1   --> A              
     e( 13 - 13) =     -0.23189  eV     1   --> A              
     e( 14 - 14) =     -0.22508  eV     1   --> A              
     e( 15 - 15) =      0.09647  eV     1   --> A              
     e( 16 - 16) =      3.61494  eV     1   --> A              
     e( 17 - 17) =      6.41106  eV     1   --> A              
     e( 18 - 18) =      6.81547  eV     1   --> A              
     e( 19 - 19) =      9.99366  eV     1   --> A              
     e( 20 - 20) =     12.54642  eV     1   --> A              
     e( 21 - 21) =     13.18716  eV     1   --> A              
     e( 22 - 22) =     14.65953  eV     1   --> A              
     e( 23 - 23) =     16.30510  eV     1   --> A              
     e( 24 - 24) =     17.20985  eV     1   --> A              

 **************************************************************************

 **************************************************************************

                    xk=(  -0.62500,   0.50000,   0.37500  )

     Band symmetry, C_1 (1)     point group:

     e(  1 -  1) =    -94.42676  eV     1   --> A              
     e(  2 -  4) =    -55.46598  eV     3   -->   3 A              
     e(  5 -  5) =    -28.29360  eV     1   --> A              
     e(  6 -  7) =    -28.29338  eV     2   -->   2 A              
     e(  8 -  9) =    -28.28683  eV     2   -->   2 A              
     e( 10 - 10) =     -2.84998  eV     1   --> A              
     e( 11 - 11) =     -0.39229  eV     1   --> A              
     e( 12 - 12) =     -0.38924  eV     1   --> A              
     e( 13 - 13) =     -0.23070  eV     1   --> A              
     e( 14 - 14) =     -0.22495  eV     1   --> A              
     e( 15 - 15) =      0.09201  eV     1   --> A              
     e( 16 - 16) =      3.60538  eV     1   --> A              
     e( 17 - 17) =      6.48553  eV     1   --> A              
     e( 18 - 18) =      6.83887  eV     1   --> A              
     e( 19 - 19) =      9.91027  eV     1   --> A              
     e( 20 - 20) =     12.58584  eV     1   --> A              
     e( 21 - 21) =     13.13470  eV     1   --> A              
     e( 22 - 22) =     14.67837  eV     1   --> A              
     e( 23 - 23) =     16.28600  eV     1   --> A              
     e( 24 - 24) =     17.26779  eV     1   --> A              

 **************************************************************************

 **************************************************************************

                    xk=(  -0.61250,   0.50000,   0.38750  )

     Band symmetry, C_1 (1)     point group:

     e(  1 -  1) =    -94.42676  eV     1   --> A              
     e(  2 -  4) =    -55.46598  eV     3   -->   3 A              
     e(  5 -  5) =    -28.29360  eV     1   --> A              
     e(  6 -  7) =    -28.29337  eV     2   -->   2 A              
     e(  8 -  9) =    -28.28683  eV     2   -->   2 A              
     e( 10 - 10) =     -2.85274  eV     1   --> A              
     e( 11 - 11) =     -0.39342  eV     1   --> A              
     e( 12 - 12) =     -0.39091  eV     1   --> A              
     e( 13 - 13) =     -0.22958  eV     1   --> A              
     e( 14 - 14) =     -0.22483  eV     1   --> A              
     e( 15 - 15) =      0.08792  eV     1   --> A              
     e( 16 - 16) =      3.59649  eV     1   --> A              
     e( 17 - 17) =      6.55832  eV     1   --> A              
     e( 18 - 18) =      6.86011  eV     1   --> A              
     e( 19 - 19) =      9.82919  eV     1   --> A              
     e( 20 - 20) =     12.62606  eV     1   --> A              
     e( 21 - 21) =     13.08584  eV     1   --> A              
     e( 22 - 22) =     14.69246  eV     1   --> A              
     e( 23 - 23) =     16.25645  eV     1   --> A              
     e( 24 - 24) =     17.34477  eV     1   --> A              

 **************************************************************************

 **************************************************************************

                    xk=(  -0.60000,   0.50000,   0.40000  )

     Band symmetry, C_1 (1)     point group:

     e(  1 -  1) =    -94.42676  eV     1   --> A              
     e(  2 -  4) =    -55.46598  eV     3   -->   3 A              
     e(  5 -  5) =    -28.29360  eV     1   --> A              
     e(  6 -  7) =    -28.29337  eV     2   -->   2 A              
     e(  8 -  9) =    -28.28683  eV     2   -->   2 A              
     e( 10 - 10) =     -2.85526  eV     1   --> A              
     e( 11 - 11) =     -0.39444  eV     1   --> A              
     e( 12 - 12) =     -0.39244  eV     1   --> A              
     e( 13 - 13) =     -0.22855  eV     1   --> A              
     e( 14 - 14) =     -0.22473  eV     1   --> A              
     e( 15 - 15) =      0.08422  eV     1   --> A              
     e( 16 - 16) =      3.58834  eV     1   --> A              
     e( 17 - 17) =      6.62846  eV     1   --> A              
     e( 18 - 18) =      6.87916  eV     1   --> A              
     e( 19 - 19) =      9.75141  eV     1   --> A              
     e( 20 - 20) =     12.66631  eV     1   --> A              
     e( 21 - 21) =     13.04122  eV     1   --> A              
     e( 22 - 22) =     14.70094  eV     1   --> A              
     e( 23 - 23) =     16.22381  eV     1   --> A              
     e( 24 - 24) =     17.43264  eV     1   --> A              

 **************************************************************************

 **************************************************************************

                    xk=(  -0.58750,   0.50000,   0.41250  )

     Band symmetry, C_1 (1)     point group:

     e(  1 -  1) =    -94.42676  eV     1   --> A              
     e(  2 -  4) =    -55.46598  eV     3   -->   3 A              
     e(  5 -  5) =    -28.29360  eV     1   --> A              
     e(  6 -  7) =    -28.29336  eV     2   -->   2 A              
     e(  8 -  9) =    -28.28683  eV     2   -->   2 A              
     e( 10 - 10) =     -2.85752  eV     1   --> A              
     e( 11 - 11) =     -0.39535  eV     1   --> A              
     e( 12 - 12) =     -0.39380  eV     1   --> A              
     e( 13 - 13) =     -0.22761  eV     1   --> A              
     e( 14 - 14) =     -0.22464  eV     1   --> A              
     e( 15 - 15) =      0.08092  eV     1   --> A              
     e( 16 - 16) =      3.58100  eV     1   --> A              
     e( 17 - 17) =      6.69489  eV     1   --> A              
     e( 18 - 18) =      6.89602  eV     1   --> A              
     e( 19 - 19) =      9.67805  eV     1   --> A              
     e( 20 - 20) =     12.70569  eV     1   --> A              
     e( 21 - 21) =     13.00126  eV     1   --> A              
     e( 22 - 22) =     14.70362  eV     1   --> A              
     e( 23 - 23) =     16.19294  eV     1   --> A              
     e( 24 - 24) =     17.52475  eV     1   --> A              

 **************************************************************************

 **************************************************************************

                    xk=(  -0.57500,   0.50000,   0.42500  )

     Band symmetry, C_1 (1)     point group:

     e(  1 -  1) =    -94.42676  eV     1   --> A              
     e(  2 -  4) =    -55.46598  eV     3   -->   3 A              
     e(  5 -  5) =    -28.29361  eV     1   --> A              
     e(  6 -  7) =    -28.29336  eV     2   -->   2 A              
     e(  8 -  9) =    -28.28682  eV     2   -->   2 A              
     e( 10 - 10) =     -2.85950  eV     1   --> A              
     e( 11 - 11) =     -0.39614  eV     1   --> A              
     e( 12 - 12) =     -0.39500  eV     1   --> A              
     e( 13 - 13) =     -0.22677  eV     1   --> A              
     e( 14 - 14) =     -0.22456  eV     1   --> A              
     e( 15 - 15) =      0.07804  eV     1   --> A              
     e( 16 - 16) =      3.57453  eV     1   --> A              
     e( 17 - 17) =      6.75643  eV     1   --> A              
     e( 18 - 18) =      6.91065  eV     1   --> A              
     e( 19 - 19) =      9.61034  eV     1   --> A              
     e( 20 - 20) =     12.74320  eV     1   --> A              
     e( 21 - 21) =     12.96627  eV     1   --> A              
     e( 22 - 22) =     14.70100  eV     1   --> A              
     e( 23 - 23) =     16.16646  eV     1   --> A              
     e( 24 - 24) =     17.61543  eV     1   --> A              

 **************************************************************************

 **************************************************************************

                    xk=(  -0.56250,   0.50000,   0.43750  )

     Band symmetry, C_1 (1)     point group:

     e(  1 -  1) =    -94.42676  eV     1   --> A              
     e(  2 -  4) =    -55.46598  eV     3   -->   3 A              
     e(  5 -  5) =    -28.29361  eV     1   --> A              
     e(  6 -  7) =    -28.29336  eV     2   -->   2 A              
     e(  8 -  9) =    -28.28682  eV     2   -->   2 A              
     e( 10 - 10) =     -2.86121  eV     1   --> A              
     e( 11 - 11) =     -0.39683  eV     1   --> A              
     e( 12 - 12) =     -0.39603  eV     1   --> A              
     e( 13 - 13) =     -0.22605  eV     1   --> A              
     e( 14 - 14) =     -0.22450  eV     1   --> A              
     e( 15 - 15) =      0.07559  eV     1   --> A              
     e( 16 - 16) =      3.56897  eV     1   --> A              
     e( 17 - 17) =      6.81178  eV     1   --> A              
     e( 18 - 18) =      6.92304  eV     1   --> A              
     e( 19 - 19) =      9.54964  eV     1   --> A              
     e( 20 - 20) =     12.77777  eV     1   --> A              
     e( 21 - 21) =     12.93644  eV     1   --> A              
     e( 22 - 22) =     14.69424  eV     1   --> A              
     e( 23 - 23) =     16.14541  eV     1   --> A              
     e( 24 - 24) =     17.69934  eV     1   --> A              

 **************************************************************************

 **************************************************************************

                    xk=(  -0.55000,   0.50000,   0.45000  )

     Band symmetry, C_1 (1)     point group:

     e(  1 -  1) =    -94.42676  eV     1   --> A              
     e(  2 -  4) =    -55.46598  eV     3   -->   3 A              
     e(  5 -  5) =    -28.29361  eV     1   --> A              
     e(  6 -  7) =    -28.29336  eV     2   -->   2 A              
     e(  8 -  9) =    -28.28682  eV     2   -->   2 A              
     e( 10 - 10) =     -2.86262  eV     1   --> A              
     e( 11 - 11) =     -0.39739  eV     1   --> A              
     e( 12 - 12) =     -0.39688  eV     1   --> A              
     e( 13 - 13) =     -0.22544  eV     1   --> A              
     e( 14 - 14) =     -0.22444  eV     1   --> A              
     e( 15 - 15) =      0.07357  eV     1   --> A              
     e( 16 - 16) =      3.56438  eV     1   --> A              
     e( 17 - 17) =      6.85961  eV     1   --> A              
     e( 18 - 18) =      6.93319  eV     1   --> A              
     e( 19 - 19) =      9.49733  eV     1   --> A              
     e( 20 - 20) =     12.80824  eV     1   --> A              
     e( 21 - 21) =     12.91191  eV     1   --> A              
     e( 22 - 22) =     14.68497  eV     1   --> A              
     e( 23 - 23) =     16.12976  eV     1   --> A              
     e( 24 - 24) =     17.77131  eV     1   --> A              

 **************************************************************************

 **************************************************************************

                    xk=(  -0.53750,   0.50000,   0.46250  )

     Band symmetry, C_1 (1)     point group:

     e(  1 -  1) =    -94.42676  eV     1   --> A              
     e(  2 -  4) =    -55.46598  eV     3   -->   3 A              
     e(  5 -  5) =    -28.29361  eV     1   --> A              
     e(  6 -  7) =    -28.29336  eV     2   -->   2 A              
     e(  8 -  9) =    -28.28682  eV     2   -->   2 A              
     e( 10 - 10) =     -2.86372  eV     1   --> A              
     e( 11 - 11) =     -0.39783  eV     1   --> A              
     e( 12 - 12) =     -0.39754  eV     1   --> A              
     e( 13 - 13) =     -0.22497  eV     1   --> A              
     e( 14 - 14) =     -0.22440  eV     1   --> A              
     e( 15 - 15) =      0.07199  eV     1   --> A              
     e( 16 - 16) =      3.56077  eV     1   --> A              
     e( 17 - 17) =      6.89859  eV     1   --> A              
     e( 18 - 18) =      6.94109  eV     1   --> A              
     e( 19 - 19) =      9.45482  eV     1   --> A              
     e( 20 - 20) =     12.83346  eV     1   --> A              
     e( 21 - 21) =     12.89276  eV     1   --> A              
     e( 22 - 22) =     14.67509  eV     1   --> A              
     e( 23 - 23) =     16.11888  eV     1   --> A              
     e( 24 - 24) =     17.82708  eV     1   --> A              

 **************************************************************************

 **************************************************************************

                    xk=(  -0.52500,   0.50000,   0.47500  )

     Band symmetry, C_1 (1)     point group:

     e(  1 -  1) =    -94.42676  eV     1   --> A              
     e(  2 -  4) =    -55.46598  eV     3   -->   3 A              
     e(  5 -  5) =    -28.29361  eV     1   --> A              
     e(  6 -  7) =    -28.29335  eV     2   -->   2 A              
     e(  8 -  9) =    -28.28682  eV     2   -->   2 A              
     e( 10 - 10) =     -2.86452  eV     1   --> A              
     e( 11 - 11) =     -0.39814  eV     1   --> A              
     e( 12 - 12) =     -0.39801  eV     1   --> A              
     e( 13 - 13) =     -0.22462  eV     1   --> A              
     e( 14 - 14) =     -0.22437  eV     1   --> A              
     e( 15 - 15) =      0.07086  eV     1   --> A              
     e( 16 - 16) =      3.55817  eV     1   --> A              
     e( 17 - 17) =      6.92747  eV     1   --> A              
     e( 18 - 18) =      6.94674  eV     1   --> A              
     e( 19 - 19) =      9.42337  eV     1   --> A              
     e( 20 - 20) =     12.85237  eV     1   --> A              
     e( 21 - 21) =     12.87906  eV     1   --> A              
     e( 22 - 22) =     14.66643  eV     1   --> A              
     e( 23 - 23) =     16.11192  eV     1   --> A              
     e( 24 - 24) =     17.86456  eV     1   --> A              

 **************************************************************************

 **************************************************************************

                    xk=(  -0.51250,   0.50000,   0.48750  )

     Band symmetry, C_1 (1)     point group:

     e(  1 -  1) =    -94.42676  eV     1   --> A              
     e(  2 -  4) =    -55.46598  eV     3   -->   3 A              
     e(  5 -  5) =    -28.29361  eV     1   --> A              
     e(  6 -  7) =    -28.29335  eV     2   -->   2 A              
     e(  8 -  9) =    -28.28682  eV     2   -->   2 A              
     e( 10 - 10) =     -2.86500  eV     1   --> A              
     e( 11 - 12) =     -0.39833  eV     2   -->   2 A              
     e( 13 - 14) =     -0.22442  eV     2   -->   2 A              
     e( 15 - 15) =      0.07018  eV     1   --> A              
     e( 16 - 16) =      3.55661  eV     1   --> A              
     e( 17 - 17) =      6.94525  eV     1   --> A              
     e( 18 - 18) =      6.95013  eV     1   --> A              
     e( 19 - 19) =      9.40404  eV     1   --> A              
     e( 20 - 20) =     12.86410  eV     1   --> A              
     e( 21 - 21) =     12.87082  eV     1   --> A              
     e( 22 - 22) =     14.66055  eV     1   --> A              
     e( 23 - 23) =     16.10812  eV     1   --> A              
     e( 24 - 24) =     17.88479  eV     1   --> A              

 **************************************************************************

 **************************************************************************

                    xk=(  -0.50000,   0.50000,   0.50000  )

     point group C_3v (3m)  
     there are  3 classes
     the character table:

       E     2C3   3s_v 
A_1    1.00  1.00  1.00
A_2    1.00  1.00 -1.00
E      2.00 -1.00  0.00

     the symmetry operations in each class and the name of the first element:

     E        1
                                                                 
     2C3      2    3
                                                                 
     3s_v     4    5    6
                                                                 

     Band symmetry, C_3v (3m)   point group:

     e(  1 -  1) =    -94.42676  eV     1   --> A_1  L_1       
     e(  2 -  4) =    -55.46598  eV     3   --> A_1  L_1       
     e(  2 -  4) =    -55.46598  eV     3   --> E    L_3       
     e(  5 -  5) =    -28.29361  eV     1   --> A_1  L_1       
     e(  6 -  7) =    -28.29335  eV     2   --> E    L_3       
     e(  8 -  9) =    -28.28682  eV     2   --> E    L_3       
     e( 10 - 10) =     -2.86516  eV     1   --> A_1  L_1       
     e( 11 - 12) =     -0.39840  eV     2   --> E    L_3       
     e( 13 - 14) =     -0.22435  eV     2   --> E    L_3       
     e( 15 - 15) =      0.06995  eV     1   --> A_1  L_1       
     e( 16 - 16) =      3.55608  eV     1   --> A_1  L_1       
     e( 17 - 18) =      6.95126  eV     2   --> E    L_3       
     e( 19 - 19) =      9.39752  eV     1   --> A_1  L_1       
     e( 20 - 21) =     12.86808  eV     2   --> E    L_3       
     e( 22 - 22) =     14.65847  eV     1   --> A_1  L_1       
     e( 23 - 23) =     16.10691  eV     1   --> A_1  L_1       
     e( 24 - 24) =     17.89069  eV     1   -->   ?

 **************************************************************************

 **************************************************************************

                    xk=(  -0.48750,   0.48750,   0.48750  )

     Band symmetry, C_3v (3m)   point group:

     e(  1 -  1) =    -94.42676  eV     1   --> A_1  L_1       
     e(  2 -  4) =    -55.46598  eV     3   --> A_1  L_1       
     e(  2 -  4) =    -55.46598  eV     3   --> E    L_3       
     e(  5 -  5) =    -28.29361  eV     1   --> A_1  L_1       
     e(  6 -  7) =    -28.29335  eV     2   --> E    L_3       
     e(  8 -  9) =    -28.28682  eV     2   --> E    L_3       
     e( 10 - 10) =     -2.86567  eV     1   --> A_1  L_1       
     e( 11 - 12) =     -0.39845  eV     2   --> E    L_3       
     e( 13 - 14) =     -0.22439  eV     2   --> E    L_3       
     e( 15 - 15) =      0.06844  eV     1   --> A_1  L_1       
     e( 16 - 16) =      3.56073  eV     1   --> A_1  L_1       
     e( 17 - 18) =      6.95214  eV     2   --> E    L_3       
     e( 19 - 19) =      9.39817  eV     1   --> A_1  L_1       
     e( 20 - 21) =     12.86845  eV     2   --> E    L_3       
     e( 22 - 22) =     14.65450  eV     1   --> A_1  L_1       
     e( 23 - 23) =     16.09704  eV     1   --> A_1  L_1       
     e( 24 - 24) =     17.86815  eV     1   -->   ?

 **************************************************************************

 **************************************************************************

                    xk=(  -0.47500,   0.47500,   0.47500  )

     Band symmetry, C_3v (3m)   point group:

     e(  1 -  1) =    -94.42676  eV     1   --> A_1  L_1       
     e(  2 -  4) =    -55.46598  eV     3   --> A_1  L_1       
     e(  2 -  4) =    -55.46598  eV     3   --> E    L_3       
     e(  5 -  5) =    -28.29361  eV     1   --> A_1  L_1       
     e(  6 -  7) =    -28.29335  eV     2   --> E    L_3       
     e(  8 -  9) =    -28.28682  eV     2   --> E    L_3       
     e( 10 - 10) =     -2.86720  eV     1   --> A_1  L_1       
     e( 11 - 12) =     -0.39863  eV     2   --> E    L_3       
     e( 13 - 14) =     -0.22450  eV     2   --> E    L_3       
     e( 15 - 15) =      0.06395  eV     1   --> A_1  L_1       
     e( 16 - 16) =      3.57463  eV     1   --> A_1  L_1       
     e( 17 - 18) =      6.95477  eV     2   --> E    L_3       
     e( 19 - 19) =      9.40011  eV     1   --> A_1  L_1       
     e( 20 - 21) =     12.86957  eV     2   --> E    L_3       
     e( 22 - 22) =     14.64231  eV     1   --> A_1  L_1       
     e( 23 - 23) =     16.06880  eV     1   --> A_1  L_1       
     e( 24 - 24) =     17.80544  eV     1   -->   ?

 **************************************************************************

 **************************************************************************

                    xk=(  -0.46250,   0.46250,   0.46250  )

     Band symmetry, C_3v (3m)   point group:

     e(  1 -  1) =    -94.42676  eV     1   --> A_1  L_1       
     e(  2 -  4) =    -55.46598  eV     3   --> A_1  L_1       
     e(  2 -  4) =    -55.46598  eV     3   --> E    L_3       
     e(  5 -  5) =    -28.29361  eV     1   --> A_1  L_1       
     e(  6 -  7) =    -28.29336  eV     2   --> E    L_3       
     e(  8 -  9) =    -28.28682  eV     2   --> E    L_3       
     e( 10 - 10) =     -2.86974  eV     1   --> A_1  L_1       
     e( 11 - 12) =     -0.39893  eV     2   --> E    L_3       
     e( 13 - 14) =     -0.22469  eV     2   --> E    L_3       
     e( 15 - 15) =      0.05658  eV     1   --> A_1  L_1       
     e( 16 - 16) =      3.59767  eV     1   --> A_1  L_1       
     e( 17 - 18) =      6.95915  eV     2   --> E    L_3       
     e( 19 - 19) =      9.40332  eV     1   --> A_1  L_1       
     e( 20 - 21) =     12.87137  eV     2   --> E    L_3       
     e( 22 - 22) =     14.62117  eV     1   --> A_1  L_1       
     e( 23 - 23) =     16.02601  eV     1   --> A_1  L_1       
     e( 24 - 24) =     17.71352  eV     1   -->   ?

 **************************************************************************

 **************************************************************************

                    xk=(  -0.45000,   0.45000,   0.45000  )

     Band symmetry, C_3v (3m)   point group:

     e(  1 -  1) =    -94.42676  eV     1   --> A_1  L_1       
     e(  2 -  4) =    -55.46598  eV     3   --> A_1  L_1       
     e(  2 -  4) =    -55.46598  eV     3   --> E    L_3       
     e(  5 -  5) =    -28.29361  eV     1   --> A_1  L_1       
     e(  6 -  7) =    -28.29336  eV     2   --> E    L_3       
     e(  8 -  9) =    -28.28682  eV     2   --> E    L_3       
     e( 10 - 10) =     -2.87328  eV     1   --> A_1  L_1       
     e( 11 - 12) =     -0.39934  eV     2   --> E    L_3       
     e( 13 - 14) =     -0.22495  eV     2   --> E    L_3       
     e( 15 - 15) =      0.04648  eV     1   --> A_1  L_1       
     e( 16 - 16) =      3.62965  eV     1   --> A_1  L_1       
     e( 17 - 18) =      6.96527  eV     2   --> E    L_3       
     e( 19 - 19) =      9.40777  eV     1   --> A_1  L_1       
     e( 20 - 21) =     12.87378  eV     2   --> E    L_3       
     e( 22 - 22) =     14.58994  eV     1   --> A_1  L_1       
     e( 23 - 23) =     15.97397  eV     1   --> A_1  L_1       
     e( 24 - 24) =     17.60326  eV     1   -->   ?

 **************************************************************************

 **************************************************************************

                    xk=(  -0.43750,   0.43750,   0.43750  )

     Band symmetry, C_3v (3m)   point group:

     e(  1 -  1) =    -94.42676  eV     1   --> A_1  L_1       
     e(  2 -  4) =    -55.46598  eV     3   --> A_1  L_1       
     e(  2 -  4) =    -55.46598  eV     3   --> E    L_3       
     e(  5 -  5) =    -28.29361  eV     1   --> A_1  L_1       
     e(  6 -  7) =    -28.29336  eV     2   --> E    L_3       
     e(  8 -  9) =    -28.28682  eV     2   --> E    L_3       
     e( 10 - 10) =     -2.87781  eV     1   --> A_1  L_1       
     e( 11 - 12) =     -0.39987  eV     2   --> E    L_3       
     e( 13 - 14) =     -0.22527  eV     2   --> E    L_3       
     e( 15 - 15) =      0.03388  eV     1   --> A_1  L_1       
     e( 16 - 16) =      3.67032  eV     1   --> A_1  L_1       
     e( 17 - 18) =      6.97309  eV     2   --> E    L_3       
     e( 19 - 19) =      9.41340  eV     1   --> A_1  L_1       
     e( 20 - 21) =     12.87668  eV     2   --> E    L_3       
     e( 22 - 22) =     14.54728  eV     1   --> A_1  L_1       
     e( 23 - 23) =     15.91846  eV     1   --> A_1  L_1       
     e( 24 - 24) =     17.48277  eV     1   -->   ?

 **************************************************************************

 **************************************************************************

                    xk=(  -0.42500,   0.42500,   0.42500  )

     Band symmetry, C_3v (3m)   point group:

     e(  1 -  1) =    -94.42676  eV     1   --> A_1  L_1       
     e(  2 -  4) =    -55.46598  eV     3   --> A_1  L_1       
     e(  2 -  4) =    -55.46598  eV     3   --> E    L_3       
     e(  5 -  5) =    -28.29361  eV     1   --> A_1  L_1       
     e(  6 -  7) =    -28.29336  eV     2   --> E    L_3       
     e(  8 -  9) =    -28.28683  eV     2   --> E    L_3       
     e( 10 - 10) =     -2.88329  eV     1   --> A_1  L_1       
     e( 11 - 12) =     -0.40053  eV     2   --> E    L_3       
     e( 13 - 14) =     -0.22565  eV     2   --> E    L_3       
     e( 15 - 15) =      0.01902  eV     1   --> A_1  L_1       
     e( 16 - 16) =      3.71937  eV     1   --> A_1  L_1       
     e( 17 - 18) =      6.98259  eV     2   --> E    L_3       
     e( 19 - 19) =      9.42013  eV     1   --> A_1  L_1       
     e( 20 - 21) =     12.87992  eV     2   --> E    L_3       
     e( 22 - 22) =     14.49194  eV     1   --> A_1  L_1       
     e( 23 - 23) =     15.86486  eV     1   --> A_1  L_1       
     e( 24 - 24) =     17.35752  eV     1   -->   ?

 **************************************************************************

 **************************************************************************

                    xk=(  -0.41250,   0.41250,   0.41250  )

     Band symmetry, C_3v (3m)   point group:

     e(  1 -  1) =    -94.42676  eV     1   --> A_1  L_1       
     e(  2 -  4) =    -55.46598  eV     3   --> A_1  L_1       
     e(  2 -  4) =    -55.46598  eV     3   --> E    L_3       
     e(  5 -  5) =    -28.29361  eV     1   --> A_1  L_1       
     e(  6 -  7) =    -28.29337  eV     2   --> E    L_3       
     e(  8 -  9) =    -28.28683  eV     2   --> E    L_3       
     e( 10 - 10) =     -2.88969  eV     1   --> A_1  L_1       
     e( 11 - 12) =     -0.40130  eV     2   --> E    L_3       
     e( 13 - 14) =     -0.22608  eV     2   --> E    L_3       
     e( 15 - 15) =      0.00219  eV     1   --> A_1  L_1       
     e( 16 - 16) =      3.77646  eV     1   --> A_1  L_1       
     e( 17 - 18) =      6.99374  eV     2   --> E    L_3       
     e( 19 - 19) =      9.42788  eV     1   --> A_1  L_1       
     e( 20 - 21) =     12.88331  eV     2   --> E    L_3       
     e( 22 - 22) =     14.42313  eV     1   --> A_1  L_1       
     e( 23 - 23) =     15.81753  eV     1   --> A_1  L_1       
     e( 24 - 24) =     17.23111  eV     1   -->   ?

 **************************************************************************

 **************************************************************************

                    xk=(  -0.40000,   0.40000,   0.40000  )

     Band symmetry, C_3v (3m)   point group:

     e(  1 -  1) =    -94.42676  eV     1   --> A_1  L_1       
     e(  2 -  4) =    -55.46598  eV     3   --> A_1  L_1       
     e(  2 -  4) =    -55.46598  eV     3   --> E    L_3       
     e(  5 -  5) =    -28.29361  eV     1   --> A_1  L_1       
     e(  6 -  7) =    -28.29337  eV     2   --> E    L_3       
     e(  8 -  9) =    -28.28683  eV     2   --> E    L_3       
     e( 10 - 10) =     -2.89699  eV     1   --> A_1  L_1       
     e( 11 - 12) =     -0.40220  eV     2   --> E    L_3       
     e( 13 - 14) =     -0.22655  eV     2   --> E    L_3       
     e( 15 - 15) =     -0.01631  eV     1   --> A_1  L_1       
     e( 16 - 16) =      3.84120  eV     1   --> A_1  L_1       
     e( 17 - 18) =      7.00649  eV     2   --> E    L_3       
     e( 19 - 19) =      9.43654  eV     1   --> A_1  L_1       
     e( 20 - 21) =     12.88664  eV     2   --> E    L_3       
     e( 22 - 22) =     14.34080  eV     1   --> A_1  L_1       
     e( 23 - 23) =     15.77943  eV     1   --> A_1  L_1       
     e( 24 - 24) =     17.10600  eV     1   -->   ?

 **************************************************************************

 **************************************************************************

                    xk=(  -0.38750,   0.38750,   0.38750  )

     Band symmetry, C_3v (3m)   point group:

     e(  1 -  1) =    -94.42676  eV     1   --> A_1  L_1       
     e(  2 -  4) =    -55.46597  eV     3   --> A_1  L_1       
[...]
     e( 13 - 13) =     -0.23314  eV     1   --> A              
     e( 14 - 14) =     -0.22522  eV     1   --> A              
     e( 15 - 15) =      0.10130  eV     1   --> A              
     e( 16 - 16) =      3.62509  eV     1   --> A              
     e( 17 - 17) =      6.33575  eV     1   --> A              
     e( 18 - 18) =      6.78996  eV     1   --> A              
     e( 19 - 19) =     10.07849  eV     1   --> A              
     e( 20 - 20) =     12.50847  eV     1   --> A              
     e( 21 - 21) =     13.24235  eV     1   --> A              
     e( 22 - 22) =     14.63744  eV     1   --> A              
     e( 23 - 23) =     16.30500  eV     1   --> A              
     e( 24 - 24) =     17.17967  eV     1   --> A              

 **************************************************************************

 **************************************************************************

                    xk=(  -0.63750,   0.50000,   0.36250  )

     Band symmetry, C_1 (1)     point group:

     e(  1 -  1) =    -94.42676  eV     1   --> A              
     e(  2 -  4) =    -55.46598  eV     3   -->   3 A              
     e(  5 -  5) =    -28.29359  eV     1   --> A              
     e(  6 -  7) =    -28.29338  eV     2   -->   2 A              
     e(  8 -  9) =    -28.28683  eV     2   -->   2 A              
     e( 10 - 10) =     -2.84699  eV     1   --> A              
     e( 11 - 11) =     -0.39107  eV     1   --> A              
     e( 12 - 12) =     -0.38742  eV     1   --> A              
     e( 13 - 13) =     -0.23189  eV     1   --> A              
     e( 14 - 14) =     -0.22508  eV     1   --> A              
     e( 15 - 15) =      0.09647  eV     1   --> A              
     e( 16 - 16) =      3.61494  eV     1   --> A              
     e( 17 - 17) =      6.41106  eV     1   --> A              
     e( 18 - 18) =      6.81547  eV     1   --> A              
     e( 19 - 19) =      9.99366  eV     1   --> A              
     e( 20 - 20) =     12.54642  eV     1   --> A              
     e( 21 - 21) =     13.18716  eV     1   --> A              
     e( 22 - 22) =     14.65953  eV     1   --> A              
     e( 23 - 23) =     16.30510  eV     1   --> A              
     e( 24 - 24) =     17.20985  eV     1   --> A              

 **************************************************************************

 **************************************************************************

                    xk=(  -0.62500,   0.50000,   0.37500  )

     Band symmetry, C_1 (1)     point group:

     e(  1 -  1) =    -94.42676  eV     1   --> A              
     e(  2 -  4) =    -55.46598  eV     3   -->   3 A              
     e(  5 -  5) =    -28.29360  eV     1   --> A              
     e(  6 -  7) =    -28.29338  eV     2   -->   2 A              
     e(  8 -  9) =    -28.28683  eV     2   -->   2 A              
     e( 10 - 10) =     -2.84998  eV     1   --> A              
     e( 11 - 11) =     -0.39229  eV     1   --> A              
     e( 12 - 12) =     -0.38924  eV     1   --> A              
     e( 13 - 13) =     -0.23070  eV     1   --> A              
     e( 14 - 14) =     -0.22495  eV     1   --> A              
     e( 15 - 15) =      0.09201  eV     1   --> A              
     e( 16 - 16) =      3.60538  eV     1   --> A              
     e( 17 - 17) =      6.48553  eV     1   --> A              
     e( 18 - 18) =      6.83887  eV     1   --> A              
     e( 19 - 19) =      9.91027  eV     1   --> A              
     e( 20 - 20) =     12.58584  eV     1   --> A              
     e( 21 - 21) =     13.13470  eV     1   --> A              
     e( 22 - 22) =     14.67837  eV     1   --> A              
     e( 23 - 23) =     16.28600  eV     1   --> A              
     e( 24 - 24) =     17.26779  eV     1   --> A              

 **************************************************************************

 **************************************************************************

                    xk=(  -0.61250,   0.50000,   0.38750  )

     Band symmetry, C_1 (1)     point group:

     e(  1 -  1) =    -94.42676  eV     1   --> A              
     e(  2 -  4) =    -55.46598  eV     3   -->   3 A              
     e(  5 -  5) =    -28.29360  eV     1   --> A              
     e(  6 -  7) =    -28.29337  eV     2   -->   2 A              
     e(  8 -  9) =    -28.28683  eV     2   -->   2 A              
     e( 10 - 10) =     -2.85274  eV     1   --> A              
     e( 11 - 11) =     -0.39342  eV     1   --> A              
     e( 12 - 12) =     -0.39091  eV     1   --> A              
     e( 13 - 13) =     -0.22958  eV     1   --> A              
     e( 14 - 14) =     -0.22483  eV     1   --> A              
     e( 15 - 15) =      0.08792  eV     1   --> A              
     e( 16 - 16) =      3.59649  eV     1   --> A              
     e( 17 - 17) =      6.55832  eV     1   --> A              
     e( 18 - 18) =      6.86011  eV     1   --> A              
     e( 19 - 19) =      9.82919  eV     1   --> A              
     e( 20 - 20) =     12.62606  eV     1   --> A              
     e( 21 - 21) =     13.08584  eV     1   --> A              
     e( 22 - 22) =     14.69246  eV     1   --> A              
     e( 23 - 23) =     16.25645  eV     1   --> A              
     e( 24 - 24) =     17.34477  eV     1   --> A              

 **************************************************************************

 **************************************************************************

                    xk=(  -0.60000,   0.50000,   0.40000  )

     Band symmetry, C_1 (1)     point group:

     e(  1 -  1) =    -94.42676  eV     1   --> A              
     e(  2 -  4) =    -55.46598  eV     3   -->   3 A              
     e(  5 -  5) =    -28.29360  eV     1   --> A              
     e(  6 -  7) =    -28.29337  eV     2   -->   2 A              
     e(  8 -  9) =    -28.28683  eV     2   -->   2 A              
     e( 10 - 10) =     -2.85526  eV     1   --> A              
     e( 11 - 11) =     -0.39444  eV     1   --> A              
     e( 12 - 12) =     -0.39244  eV     1   --> A              
     e( 13 - 13) =     -0.22855  eV     1   --> A              
     e( 14 - 14) =     -0.22473  eV     1   --> A              
     e( 15 - 15) =      0.08422  eV     1   --> A              
     e( 16 - 16) =      3.58834  eV     1   --> A              
     e( 17 - 17) =      6.62846  eV     1   --> A              
     e( 18 - 18) =      6.87916  eV     1   --> A              
     e( 19 - 19) =      9.75141  eV     1   --> A              
     e( 20 - 20) =     12.66631  eV     1   --> A              
     e( 21 - 21) =     13.04122  eV     1   --> A              
     e( 22 - 22) =     14.70094  eV     1   --> A              
     e( 23 - 23) =     16.22381  eV     1   --> A              
     e( 24 - 24) =     17.43264  eV     1   --> A              

 **************************************************************************

 **************************************************************************

                    xk=(  -0.58750,   0.50000,   0.41250  )

     Band symmetry, C_1 (1)     point group:

     e(  1 -  1) =    -94.42676  eV     1   --> A              
     e(  2 -  4) =    -55.46598  eV     3   -->   3 A              
     e(  5 -  5) =    -28.29360  eV     1   --> A              
     e(  6 -  7) =    -28.29336  eV     2   -->   2 A              
     e(  8 -  9) =    -28.28683  eV     2   -->   2 A              
     e( 10 - 10) =     -2.85752  eV     1   --> A              
     e( 11 - 11) =     -0.39535  eV     1   --> A              
     e( 12 - 12) =     -0.39380  eV     1   --> A              
     e( 13 - 13) =     -0.22761  eV     1   --> A              
     e( 14 - 14) =     -0.22464  eV     1   --> A              
     e( 15 - 15) =      0.08092  eV     1   --> A              
     e( 16 - 16) =      3.58100  eV     1   --> A              
     e( 17 - 17) =      6.69489  eV     1   --> A              
     e( 18 - 18) =      6.89602  eV     1   --> A              
     e( 19 - 19) =      9.67805  eV     1   --> A              
     e( 20 - 20) =     12.70569  eV     1   --> A              
     e( 21 - 21) =     13.00126  eV     1   --> A              
     e( 22 - 22) =     14.70362  eV     1   --> A              
     e( 23 - 23) =     16.19294  eV     1   --> A              
     e( 24 - 24) =     17.52475  eV     1   --> A              

 **************************************************************************

 **************************************************************************

                    xk=(  -0.57500,   0.50000,   0.42500  )

     Band symmetry, C_1 (1)     point group:

     e(  1 -  1) =    -94.42676  eV     1   --> A              
     e(  2 -  4) =    -55.46598  eV     3   -->   3 A              
     e(  5 -  5) =    -28.29361  eV     1   --> A              
     e(  6 -  7) =    -28.29336  eV     2   -->   2 A              
     e(  8 -  9) =    -28.28682  eV     2   -->   2 A              
     e( 10 - 10) =     -2.85950  eV     1   --> A              
     e( 11 - 11) =     -0.39614  eV     1   --> A              
     e( 12 - 12) =     -0.39500  eV     1   --> A              
     e( 13 - 13) =     -0.22677  eV     1   --> A              
     e( 14 - 14) =     -0.22456  eV     1   --> A              
     e( 15 - 15) =      0.07804  eV     1   --> A              
     e( 16 - 16) =      3.57453  eV     1   --> A              
     e( 17 - 17) =      6.75643  eV     1   --> A              
     e( 18 - 18) =      6.91065  eV     1   --> A              
     e( 19 - 19) =      9.61034  eV     1   --> A              
     e( 20 - 20) =     12.74320  eV     1   --> A              
     e( 21 - 21) =     12.96627  eV     1   --> A              
     e( 22 - 22) =     14.70100  eV     1   --> A              
     e( 23 - 23) =     16.16646  eV     1   --> A              
     e( 24 - 24) =     17.61543  eV     1   --> A              

 **************************************************************************

 **************************************************************************

                    xk=(  -0.56250,   0.50000,   0.43750  )

     Band symmetry, C_1 (1)     point group:

     e(  1 -  1) =    -94.42676  eV     1   --> A              
     e(  2 -  4) =    -55.46598  eV     3   -->   3 A              
     e(  5 -  5) =    -28.29361  eV     1   --> A              
     e(  6 -  7) =    -28.29336  eV     2   -->   2 A              
     e(  8 -  9) =    -28.28682  eV     2   -->   2 A              
     e( 10 - 10) =     -2.86121  eV     1   --> A              
     e( 11 - 11) =     -0.39683  eV     1   --> A              
     e( 12 - 12) =     -0.39603  eV     1   --> A              
     e( 13 - 13) =     -0.22605  eV     1   --> A              
     e( 14 - 14) =     -0.22450  eV     1   --> A              
     e( 15 - 15) =      0.07559  eV     1   --> A              
     e( 16 - 16) =      3.56897  eV     1   --> A              
     e( 17 - 17) =      6.81178  eV     1   --> A              
     e( 18 - 18) =      6.92304  eV     1   --> A              
     e( 19 - 19) =      9.54964  eV     1   --> A              
     e( 20 - 20) =     12.77777  eV     1   --> A              
     e( 21 - 21) =     12.93644  eV     1   --> A              
     e( 22 - 22) =     14.69424  eV     1   --> A              
     e( 23 - 23) =     16.14541  eV     1   --> A              
     e( 24 - 24) =     17.69934  eV     1   --> A              

 **************************************************************************

 **************************************************************************

                    xk=(  -0.55000,   0.50000,   0.45000  )

     Band symmetry, C_1 (1)     point group:

     e(  1 -  1) =    -94.42676  eV     1   --> A              
     e(  2 -  4) =    -55.46598  eV     3   -->   3 A              
     e(  5 -  5) =    -28.29361  eV     1   --> A              
     e(  6 -  7) =    -28.29336  eV     2   -->   2 A              
     e(  8 -  9) =    -28.28682  eV     2   -->   2 A              
     e( 10 - 10) =     -2.86262  eV     1   --> A              
     e( 11 - 11) =     -0.39739  eV     1   --> A              
     e( 12 - 12) =     -0.39688  eV     1   --> A              
     e( 13 - 13) =     -0.22544  eV     1   --> A              
     e( 14 - 14) =     -0.22444  eV     1   --> A              
     e( 15 - 15) =      0.07357  eV     1   --> A              
     e( 16 - 16) =      3.56438  eV     1   --> A              
     e( 17 - 17) =      6.85961  eV     1   --> A              
     e( 18 - 18) =      6.93319  eV     1   --> A              
     e( 19 - 19) =      9.49733  eV     1   --> A              
     e( 20 - 20) =     12.80824  eV     1   --> A              
     e( 21 - 21) =     12.91191  eV     1   --> A              
     e( 22 - 22) =     14.68497  eV     1   --> A              
     e( 23 - 23) =     16.12976  eV     1   --> A              
     e( 24 - 24) =     17.77131  eV     1   --> A              

 **************************************************************************

 **************************************************************************

                    xk=(  -0.53750,   0.50000,   0.46250  )

     Band symmetry, C_1 (1)     point group:

     e(  1 -  1) =    -94.42676  eV     1   --> A              
     e(  2 -  4) =    -55.46598  eV     3   -->   3 A              
     e(  5 -  5) =    -28.29361  eV     1   --> A              
     e(  6 -  7) =    -28.29336  eV     2   -->   2 A              
     e(  8 -  9) =    -28.28682  eV     2   -->   2 A              
     e( 10 - 10) =     -2.86372  eV     1   --> A              
     e( 11 - 11) =     -0.39783  eV     1   --> A              
     e( 12 - 12) =     -0.39754  eV     1   --> A              
     e( 13 - 13) =     -0.22497  eV     1   --> A              
     e( 14 - 14) =     -0.22440  eV     1   --> A              
     e( 15 - 15) =      0.07199  eV     1   --> A              
     e( 16 - 16) =      3.56077  eV     1   --> A              
     e( 17 - 17) =      6.89859  eV     1   --> A              
     e( 18 - 18) =      6.94109  eV     1   --> A              
     e( 19 - 19) =      9.45482  eV     1   --> A              
     e( 20 - 20) =     12.83346  eV     1   --> A              
     e( 21 - 21) =     12.89276  eV     1   --> A              
     e( 22 - 22) =     14.67509  eV     1   --> A              
     e( 23 - 23) =     16.11888  eV     1   --> A              
     e( 24 - 24) =     17.82708  eV     1   --> A              

 **************************************************************************

 **************************************************************************

                    xk=(  -0.52500,   0.50000,   0.47500  )

     Band symmetry, C_1 (1)     point group:

     e(  1 -  1) =    -94.42676  eV     1   --> A              
     e(  2 -  4) =    -55.46598  eV     3   -->   3 A              
     e(  5 -  5) =    -28.29361  eV     1   --> A              
     e(  6 -  7) =    -28.29335  eV     2   -->   2 A              
     e(  8 -  9) =    -28.28682  eV     2   -->   2 A              
     e( 10 - 10) =     -2.86452  eV     1   --> A              
     e( 11 - 11) =     -0.39814  eV     1   --> A              
     e( 12 - 12) =     -0.39801  eV     1   --> A              
     e( 13 - 13) =     -0.22462  eV     1   --> A              
     e( 14 - 14) =     -0.22437  eV     1   --> A              
     e( 15 - 15) =      0.07086  eV     1   --> A              
     e( 16 - 16) =      3.55817  eV     1   --> A              
     e( 17 - 17) =      6.92747  eV     1   --> A              
     e( 18 - 18) =      6.94674  eV     1   --> A              
     e( 19 - 19) =      9.42337  eV     1   --> A              
     e( 20 - 20) =     12.85237  eV     1   --> A              
     e( 21 - 21) =     12.87906  eV     1   --> A              
     e( 22 - 22) =     14.66643  eV     1   --> A              
     e( 23 - 23) =     16.11192  eV     1   --> A              
     e( 24 - 24) =     17.86456  eV     1   --> A              

 **************************************************************************

 **************************************************************************

                    xk=(  -0.51250,   0.50000,   0.48750  )

     Band symmetry, C_1 (1)     point group:

     e(  1 -  1) =    -94.42676  eV     1   --> A              
     e(  2 -  4) =    -55.46598  eV     3   -->   3 A              
     e(  5 -  5) =    -28.29361  eV     1   --> A              
     e(  6 -  7) =    -28.29335  eV     2   -->   2 A              
     e(  8 -  9) =    -28.28682  eV     2   -->   2 A              
     e( 10 - 10) =     -2.86500  eV     1   --> A              
     e( 11 - 12) =     -0.39833  eV     2   -->   2 A              
     e( 13 - 14) =     -0.22442  eV     2   -->   2 A              
     e( 15 - 15) =      0.07018  eV     1   --> A              
     e( 16 - 16) =      3.55661  eV     1   --> A              
     e( 17 - 17) =      6.94525  eV     1   --> A              
     e( 18 - 18) =      6.95013  eV     1   --> A              
     e( 19 - 19) =      9.40404  eV     1   --> A              
     e( 20 - 20) =     12.86410  eV     1   --> A              
     e( 21 - 21) =     12.87082  eV     1   --> A              
     e( 22 - 22) =     14.66055  eV     1   --> A              
     e( 23 - 23) =     16.10812  eV     1   --> A              
     e( 24 - 24) =     17.88470  eV     1   --> A              

 **************************************************************************

 **************************************************************************

                    xk=(  -0.50000,   0.50000,   0.50000  )

     point group C_3v (3m)  
     there are  3 classes
     the character table:

       E     2C3   3s_v 
A_1    1.00  1.00  1.00
A_2    1.00  1.00 -1.00
E      2.00 -1.00  0.00

     the symmetry operations in each class and the name of the first element:

     E        1
                                                                 
     2C3      2    3
                                                                 
     3s_v     4    5    6
                                                                 

     Band symmetry, C_3v (3m)   point group:

     e(  1 -  1) =    -94.42676  eV     1   --> A_1  L_1       
     e(  2 -  4) =    -55.46598  eV     3   --> A_1  L_1       
     e(  2 -  4) =    -55.46598  eV     3   --> E    L_3       
     e(  5 -  5) =    -28.29361  eV     1   --> A_1  L_1       
     e(  6 -  7) =    -28.29335  eV     2   --> E    L_3       
     e(  8 -  9) =    -28.28682  eV     2   --> E    L_3       
     e( 10 - 10) =     -2.86516  eV     1   --> A_1  L_1       
     e( 11 - 12) =     -0.39840  eV     2   --> E    L_3       
     e( 13 - 14) =     -0.22435  eV     2   --> E    L_3       
     e( 15 - 15) =      0.06995  eV     1   --> A_1  L_1       
     e( 16 - 16) =      3.55608  eV     1   --> A_1  L_1       
     e( 17 - 18) =      6.95126  eV     2   --> E    L_3       
     e( 19 - 19) =      9.39752  eV     1   --> A_1  L_1       
     e( 20 - 21) =     12.86808  eV     2   --> E    L_3       
     e( 22 - 22) =     14.65847  eV     1   --> A_1  L_1       
     e( 23 - 23) =     16.10691  eV     1   --> A_1  L_1       
     e( 24 - 24) =     17.89069  eV     1   -->   ?

 **************************************************************************

     BANDS        :     26.12s CPU     30.38s WALL


   This run was terminated on:  19:57:23  11Jan2026            

=------------------------------------------------------------------------------=
   JOB DONE.
=------------------------------------------------------------------------------=
