
     Program PWSCF v.7.5 starts on 11Jan2026 at 20:49:55 

     This program is part of the open-source Quantum ESPRESSO suite
     for quantum simulation of materials; please cite
         "P. Giannozzi et al., J. Phys.:Condens. Matter 21 395502 (2009);
         "P. Giannozzi et al., J. Phys.:Condens. Matter 29 465901 (2017);
         "P. Giannozzi et al., J. Chem. Phys. 152 154105 (2020);
          URL http://www.quantum-espresso.org", 
     in publications or presentations arising from this work. More details at
     http://www.quantum-espresso.org/quote

     Serial version
     2143 MiB available memory on the printing compute node when the environment starts

     Waiting for input...
     Reading input from standard input

     Current dimensions of program PWSCF are:
     Max number of different atomic species (ntypx) = 10
     Max number of k-points (npk) =  40000
     Max angular momentum in pseudopotentials (lmaxx) =  4
     Message from routine iosys:
     BEWARE:  force calculation with tetrahedra (not recommanded)
     Message from routine iosys:
     BEWARE: stress calculation with tetrahedra (not recommanded)
     [opt_tetra]  Optimized tetrahedron method is used.


     G-vector sticks info
     --------------------
     sticks:   dense  smooth     PW     G-vecs:    dense   smooth      PW
     Sum        1507    1507    433                38781    38781    5961

     Using Slab Decomposition



     bravais-lattice index     =            2
     lattice parameter (alat)  =      12.5000  a.u.
     unit-cell volume          =     488.2812 (a.u.)^3
     number of atoms/cell      =            2
     number of atomic types    =            2
     number of electrons       =        36.00
     number of Kohn-Sham states=           22
     kinetic-energy cutoff     =      70.0000  Ry
     charge density cutoff     =     280.0000  Ry
     scf convergence threshold =      1.0E-05
     mixing beta               =       0.7000
     number of iterations used =            8  plain     mixing
     Exchange-correlation= PBE
                           (   1   4   3   4   0   0   0)

     celldm(1)=  12.500000  celldm(2)=   0.000000  celldm(3)=   0.000000
     celldm(4)=   0.000000  celldm(5)=   0.000000  celldm(6)=   0.000000

     crystal axes: (cart. coord. in units of alat)
               a(1) = (  -0.500000   0.000000   0.500000 )  
               a(2) = (   0.000000   0.500000   0.500000 )  
               a(3) = (  -0.500000   0.500000   0.000000 )  

     reciprocal axes: (cart. coord. in units 2 pi/alat)
               b(1) = ( -1.000000 -1.000000  1.000000 )  
               b(2) = (  1.000000  1.000000  1.000000 )  
               b(3) = ( -1.000000  1.000000 -1.000000 )  


     PseudoPot. # 1 for Cd read from file:
     ./PSEUDO/Cd_ONCV_PBE-1.2.upf
     MD5 check sum: 810a600e5a5ac944c8c8f48f0d721646
     Pseudo is Norm-conserving, Zval = 20.0
     Generated using ONCVPSP code by D. R. Hamann
     Using radial grid of  602 points,  6 beta functions with: 
                l(1) =   0
                l(2) =   0
                l(3) =   1
                l(4) =   1
                l(5) =   2
                l(6) =   2

     PseudoPot. # 2 for Te read from file:
     ./PSEUDO/Te_ONCV_PBE-1.2.upf
     MD5 check sum: dd4de4dac1e38587f63aaf3700bb29d3
     Pseudo is Norm-conserving, Zval = 16.0
     Generated using ONCVPSP code by D. R. Hamann
     Using radial grid of  602 points,  6 beta functions with: 
                l(1) =   0
                l(2) =   0
                l(3) =   1
                l(4) =   1
                l(5) =   2
                l(6) =   2

     atomic species   valence    mass     pseudopotential
     Cd               20.00   112.40000     Cd( 1.00)
     Te               16.00   127.60000     Te( 1.00)

      4 Sym. Ops. (no inversion) found



   Cartesian axes

     site n.     atom                  positions (alat units)
         1        Cd     tau(   1) = (   0.0000000   0.1500000   0.0000000  )
         2        Te     tau(   2) = (  -0.2500000   0.2500000   0.2500000  )

     number of k points=    64 (tetrahedron method)
                       cart. coord. in units 2pi/alat
        k(    1) = (   0.0000000   0.0000000   0.0000000), wk =   0.0058309
        k(    2) = (  -0.1428571   0.1428571  -0.1428571), wk =   0.0233236
        k(    3) = (  -0.2857143   0.2857143  -0.2857143), wk =   0.0233236
        k(    4) = (  -0.4285714   0.4285714  -0.4285714), wk =   0.0233236
        k(    5) = (   0.0000000   0.2857143   0.0000000), wk =   0.0116618
        k(    6) = (  -0.1428571   0.4285714  -0.1428571), wk =   0.0233236
        k(    7) = (  -0.2857143   0.5714286  -0.2857143), wk =   0.0233236
        k(    8) = (   0.5714286  -0.2857143   0.5714286), wk =   0.0233236
        k(    9) = (   0.4285714  -0.1428571   0.4285714), wk =   0.0233236
        k(   10) = (   0.2857143  -0.0000000   0.2857143), wk =   0.0116618
        k(   11) = (   0.0000000   0.5714286   0.0000000), wk =   0.0116618
        k(   12) = (  -0.1428571   0.7142857  -0.1428571), wk =   0.0233236
        k(   13) = (   0.7142857  -0.1428571   0.7142857), wk =   0.0233236
        k(   14) = (   0.5714286   0.0000000   0.5714286), wk =   0.0116618
        k(   15) = (   0.0000000   0.8571429   0.0000000), wk =   0.0116618
        k(   16) = (   0.8571429   0.0000000   0.8571429), wk =   0.0116618
        k(   17) = (  -0.2857143   0.5714286   0.0000000), wk =   0.0466472
        k(   18) = (   0.5714286  -0.2857143   0.8571429), wk =   0.0466472
        k(   19) = (   0.7142857  -0.1428571   1.0000000), wk =   0.0466472
        k(   20) = (   0.5714286   0.0000000   0.8571429), wk =   0.0233236
        k(   21) = (  -0.1428571   0.1428571   0.1428571), wk =   0.0233236
        k(   22) = (  -0.2857143   0.2857143   0.2857143), wk =   0.0233236
        k(   23) = (  -0.4285714   0.4285714   0.4285714), wk =   0.0233236
        k(   24) = (   0.2857143   0.0000000   0.0000000), wk =   0.0233236
        k(   25) = (   0.4285714  -0.1428571   0.1428571), wk =   0.0466472
        k(   26) = (  -0.4285714   0.1428571   0.1428571), wk =   0.0466472
        k(   27) = (  -0.1428571   0.4285714   0.1428571), wk =   0.0233236
        k(   28) = (   0.5714286  -0.2857143   0.2857143), wk =   0.0466472
        k(   29) = (  -0.5714286   0.2857143   0.2857143), wk =   0.0466472
        k(   30) = (  -0.2857143   0.5714286   0.2857143), wk =   0.0233236
        k(   31) = (  -0.2857143   0.5714286  -0.5714286), wk =   0.0466472
        k(   32) = (   0.2857143  -0.5714286  -0.5714286), wk =   0.0466472
        k(   33) = (   0.5714286  -0.2857143  -0.5714286), wk =   0.0233236
        k(   34) = (  -0.1428571   0.4285714  -0.4285714), wk =   0.0466472
        k(   35) = (   0.1428571  -0.4285714  -0.4285714), wk =   0.0466472
        k(   36) = (   0.4285714  -0.1428571  -0.4285714), wk =   0.0233236
        k(   37) = (  -0.0000000   0.2857143  -0.2857143), wk =   0.0466472
        k(   38) = (   0.2857143  -0.0000000  -0.2857143), wk =   0.0116618
        k(   39) = (   0.5714286   0.0000000   0.0000000), wk =   0.0233236
        k(   40) = (   0.7142857  -0.1428571   0.1428571), wk =   0.0466472
        k(   41) = (  -0.7142857   0.1428571   0.1428571), wk =   0.0466472
        k(   42) = (  -0.1428571   0.7142857   0.1428571), wk =   0.0233236
        k(   43) = (  -0.1428571   0.7142857  -0.7142857), wk =   0.0466472
        k(   44) = (   0.1428571  -0.7142857  -0.7142857), wk =   0.0466472
        k(   45) = (   0.7142857  -0.1428571  -0.7142857), wk =   0.0233236
        k(   46) = (   0.0000000   0.5714286  -0.5714286), wk =   0.0466472
        k(   47) = (   0.5714286   0.0000000  -0.5714286), wk =   0.0116618
        k(   48) = (   0.8571429   0.0000000   0.0000000), wk =   0.0233236
        k(   49) = (   0.0000000   0.8571429  -0.8571429), wk =   0.0466472
        k(   50) = (   0.8571429   0.0000000  -0.8571429), wk =   0.0116618
        k(   51) = (   0.5714286  -0.2857143   0.0000000), wk =   0.0466472
        k(   52) = (   0.2857143   0.0000000   0.5714286), wk =   0.0233236
        k(   53) = (   0.2857143   0.0000000  -0.5714286), wk =   0.0233236
        k(   54) = (  -0.2857143   0.5714286  -0.8571429), wk =   0.0466472
        k(   55) = (   0.2857143  -0.5714286  -0.8571429), wk =   0.0466472
        k(   56) = (   0.8571429  -0.2857143  -0.5714286), wk =   0.0466472
        k(   57) = (  -0.5714286   0.8571429  -0.2857143), wk =   0.0466472
        k(   58) = (  -0.5714286  -0.8571429   0.2857143), wk =   0.0466472
        k(   59) = (  -0.1428571   0.7142857  -1.0000000), wk =   0.0466472
        k(   60) = (  -0.7142857   1.0000000  -0.1428571), wk =   0.0233236
        k(   61) = (  -0.7142857  -1.0000000   0.1428571), wk =   0.0233236
        k(   62) = (   0.0000000   0.5714286  -0.8571429), wk =   0.0466472
        k(   63) = (   0.8571429   0.0000000  -0.5714286), wk =   0.0233236
        k(   64) = (  -0.5714286   0.8571429   0.0000000), wk =   0.0466472

     Dense  grid:    38781 G-vectors     FFT dimensions: (  48,  48,  48)

     Estimated max dynamical RAM per process >     142.20 MB

     Initial potential from superposition of free atoms

     starting charge      35.9267, renormalised to      36.0000
     Starting wfcs are random

     total cpu time spent up to now is        4.2 secs

     Self-consistent Calculation

     iteration #  1     ecut=    70.00 Ry     beta= 0.70
     Davidson diagonalization with overlap
     ethr =  1.00E-02,  avg # of iterations =  9.5

     Threshold (ethr) on eigenvalues was too large:
     Diagonalizing with lowered threshold

     Davidson diagonalization with overlap
     ethr =  3.19E-04,  avg # of iterations =  2.6

     total cpu time spent up to now is       42.8 secs

     total energy              =    -485.56425628 Ry
     estimated scf accuracy    <       0.10438202 Ry

     iteration #  2     ecut=    70.00 Ry     beta= 0.70
     Davidson diagonalization with overlap
     ethr =  2.90E-04,  avg # of iterations =  2.2

     total cpu time spent up to now is       52.9 secs

     total energy              =    -485.59682080 Ry
     estimated scf accuracy    <       0.03718751 Ry

     iteration #  3     ecut=    70.00 Ry     beta= 0.70
     Davidson diagonalization with overlap
     ethr =  1.03E-04,  avg # of iterations =  2.0

     total cpu time spent up to now is       62.1 secs

     total energy              =    -485.60500997 Ry
     estimated scf accuracy    <       0.00040212 Ry

     iteration #  4     ecut=    70.00 Ry     beta= 0.70
     Davidson diagonalization with overlap
     ethr =  1.12E-06,  avg # of iterations =  4.7

     total cpu time spent up to now is       73.9 secs

     total energy              =    -485.60509099 Ry
     estimated scf accuracy    <       0.00006758 Ry

     iteration #  5     ecut=    70.00 Ry     beta= 0.70
     Davidson diagonalization with overlap
     ethr =  1.88E-07,  avg # of iterations =  2.0

     total cpu time spent up to now is       83.2 secs

     End of self-consistent calculation

          k = 0.0000 0.0000 0.0000 (  4909 PWs)   bands (ev):

   -95.0860 -56.3056 -56.1079 -56.0799 -28.5352 -28.4261 -28.3600 -28.1665
   -28.1649  -4.2336  -1.4104  -1.0665  -0.8073  -0.8001  -0.5930   5.9565
     7.5335   7.6096   8.7011  12.3953  13.2057  14.0742

          k =-0.1429 0.1429-0.1429 (  4828 PWs)   bands (ev):

   -95.0860 -56.3056 -56.1079 -56.0799 -28.5352 -28.4260 -28.3600 -28.1665
   -28.1649  -4.2009  -1.4036  -1.0665  -0.8195  -0.7806  -0.5353   5.8892
     6.6619   7.5694   9.1361  12.3195  12.9051  14.2734

          k =-0.2857 0.2857-0.2857 (  4828 PWs)   bands (ev):

   -95.0860 -56.3056 -56.1079 -56.0799 -28.5352 -28.4259 -28.3599 -28.1664
   -28.1648  -4.1282  -1.3887  -1.0659  -0.8344  -0.7550  -0.3695   5.4559
     5.7445   7.4616   9.1749  12.2633  13.2552  14.4257

          k =-0.4286 0.4286-0.4286 (  4844 PWs)   bands (ev):

   -95.0860 -56.3056 -56.1079 -56.0799 -28.5352 -28.4258 -28.3599 -28.1664
   -28.1647  -4.0709  -1.3772  -1.0647  -0.8447  -0.7389  -0.1911   4.6564
     5.6341   7.3813   9.0258  11.9469  13.9728  14.2646

          k = 0.0000 0.2857 0.0000 (  4837 PWs)   bands (ev):

   -95.0860 -56.3056 -56.1079 -56.0799 -28.5352 -28.4260 -28.3599 -28.1664
   -28.1650  -4.1896  -1.3976  -1.0623  -0.7929  -0.7878  -0.5247   5.7744
     6.5916   7.2438   9.4414  11.9321  13.5573  14.5131

          k =-0.1429 0.4286-0.1429 (  4829 PWs)   bands (ev):

   -95.0860 -56.3056 -56.1079 -56.0799 -28.5352 -28.4259 -28.3599 -28.1663
   -28.1649  -4.1309  -1.3829  -1.0593  -0.8064  -0.7621  -0.3869   5.6059
     5.6556   7.0764   9.3932  12.2642  13.4355  14.8633

          k =-0.2857 0.5714-0.2857 (  4820 PWs)   bands (ev):

   -95.0860 -56.3056 -56.1079 -56.0799 -28.5353 -28.4258 -28.3599 -28.1663
   -28.1648  -4.0695  -1.3707  -1.0594  -0.8221  -0.7468  -0.1943   4.8426
     5.5092   6.8498   9.2375  12.1192  14.0552  14.7576

          k = 0.5714-0.2857 0.5714 (  4823 PWs)   bands (ev):

   -95.0860 -56.3056 -56.1079 -56.0799 -28.5352 -28.4258 -28.3599 -28.1663
   -28.1647  -4.0502  -1.3698  -1.0634  -0.8315  -0.7445  -0.1342   4.6878
     5.5488   6.6691   9.2667  11.8920  14.1782  14.6085

          k = 0.4286-0.1429 0.4286 (  4831 PWs)   bands (ev):

   -95.0860 -56.3056 -56.1079 -56.0799 -28.5352 -28.4259 -28.3599 -28.1664
   -28.1647  -4.0876  -1.3807  -1.0683  -0.8328  -0.7560  -0.2684   5.2858
     5.6989   6.6747   9.4564  12.0148  13.0747  14.7019

          k = 0.2857-0.0000 0.2857 (  4818 PWs)   bands (ev):

   -95.0860 -56.3056 -56.1079 -56.0799 -28.5352 -28.4260 -28.3600 -28.1665
   -28.1648  -4.1551  -1.3959  -1.0694  -0.8300  -0.7717  -0.4391   5.8537
     6.1601   7.0389   9.4503  12.2742  12.4554  14.5557

          k = 0.0000 0.5714 0.0000 (  4837 PWs)   bands (ev):

   -95.0860 -56.3056 -56.1079 -56.0799 -28.5353 -28.4258 -28.3598 -28.1662
   -28.1650  -4.0948  -1.3680  -1.0528  -0.7880  -0.7585  -0.2926   5.3839
     5.4022   6.6853   9.1544  12.2490  14.0020  14.4490

          k =-0.1429 0.7143-0.1429 (  4829 PWs)   bands (ev):

   -95.0860 -56.3056 -56.1080 -56.0799 -28.5353 -28.4257 -28.3598 -28.1661
   -28.1650  -4.0480  -1.3555  -1.0509  -0.7939  -0.7491  -0.1270   4.8808
     5.2847   6.3437   8.9325  12.4699  13.8366  15.5387

          k = 0.7143-0.1429 0.7143 (  4837 PWs)   bands (ev):

   -95.0860 -56.3056 -56.1080 -56.0799 -28.5353 -28.4257 -28.3598 -28.1661
   -28.1649  -4.0243  -1.3543  -1.0560  -0.7992  -0.7539  -0.0450   4.8182
     5.3298   5.8897   8.9895  12.7561  14.0690  15.5299

          k = 0.5714 0.0000 0.5714 (  4840 PWs)   bands (ev):

   -95.0860 -56.3056 -56.1079 -56.0799 -28.5352 -28.4258 -28.3599 -28.1663
   -28.1647  -4.0411  -1.3653  -1.0641  -0.8126  -0.7589  -0.1267   5.2170
     5.5094   5.7640   9.3029  12.6185  13.2023  15.4547

          k = 0.0000 0.8571 0.0000 (  4812 PWs)   bands (ev):

   -95.0860 -56.3056 -56.1080 -56.0799 -28.5354 -28.4256 -28.3597 -28.1660
   -28.1651  -4.0233  -1.3432  -1.0452  -0.7951  -0.7330  -0.0197   4.5847
     5.1321   6.2993   8.6347  11.8493  15.2368  15.4555

          k = 0.8571 0.0000 0.8571 (  4850 PWs)   bands (ev):

   -95.0860 -56.3056 -56.1080 -56.0799 -28.5353 -28.4256 -28.3597 -28.1660
   -28.1650  -4.0129  -1.3426  -1.0474  -0.7935  -0.7394   0.0200   4.5832
     5.1510   6.0208   8.6584  12.2698  15.0739  15.2908

          k =-0.2857 0.5714 0.0000 (  4817 PWs)   bands (ev):

   -95.0860 -56.3058 -56.1079 -56.0799 -28.5339 -28.4265 -28.3597 -28.1662
   -28.1649  -3.9569  -1.4291  -1.0757  -0.7915  -0.7556  -0.3156   4.4379
     5.6593   6.8754  10.2060  12.0880  13.1921  14.5730

          k = 0.5714-0.2857 0.8571 (  4822 PWs)   bands (ev):

   -95.0860 -56.3058 -56.1079 -56.0799 -28.5339 -28.4265 -28.3597 -28.1662
   -28.1648  -3.9137  -1.4200  -1.0792  -0.8016  -0.7501  -0.1819   4.4898
     5.0826   6.5557  10.1628  11.8840  13.7125  15.0082

          k = 0.7143-0.1429 1.0000 (  4843 PWs)   bands (ev):

   -95.0860 -56.3058 -56.1079 -56.0799 -28.5340 -28.4264 -28.3596 -28.1661
   -28.1649  -3.8964  -1.4042  -1.0694  -0.7882  -0.7425  -0.1109   4.2888
     5.0264   6.2716   9.8153  12.3586  13.7445  14.8773

          k = 0.5714 0.0000 0.8571 (  4824 PWs)   bands (ev):

   -95.0860 -56.3058 -56.1079 -56.0799 -28.5339 -28.4264 -28.3596 -28.1662
   -28.1648  -3.8904  -1.4102  -1.0779  -0.7866  -0.7549  -0.1136   4.4570
     5.2018   5.8482  10.0050  12.6048  13.3506  14.7136

          k =-0.1429 0.1429 0.1429 (  4828 PWs)   bands (ev):

   -95.0860 -56.3058 -56.1079 -56.0799 -28.5338 -28.4268 -28.3598 -28.1665
   -28.1649  -4.0857  -1.4712  -1.0841  -0.7954  -0.7907  -0.6006   5.0122
     7.3969   7.5520   9.8409  11.9379  13.0184  14.0373

          k =-0.2857 0.2857 0.2857 (  4828 PWs)   bands (ev):

   -95.0860 -56.3061 -56.1079 -56.0799 -28.5307 -28.4285 -28.3594 -28.1664
   -28.1648  -3.6839  -1.6341  -1.1226  -0.7805  -0.7702  -0.6562   3.7165
     7.1115   7.6062  10.4217  12.4126  12.6852  14.6460

          k =-0.4286 0.4286 0.4286 (  4844 PWs)   bands (ev):

   -95.0860 -56.3064 -56.1078 -56.0799 -28.5281 -28.4300 -28.3590 -28.1664
   -28.1646  -3.2206  -1.8607  -1.1528  -0.7781  -0.7576  -0.7542   2.9820
     6.8892   7.6639  10.1602  11.9182  14.3226  14.6264

          k = 0.2857 0.0000 0.0000 (  4837 PWs)   bands (ev):

   -95.0860 -56.3058 -56.1079 -56.0799 -28.5338 -28.4268 -28.3598 -28.1665
   -28.1648  -4.0749  -1.4702  -1.0870  -0.8109  -0.7813  -0.5783   5.0557
     7.1826   7.4833   9.9260  11.9079  12.6401  14.3278

          k = 0.4286-0.1429 0.1429 (  4829 PWs)   bands (ev):

   -95.0860 -56.3058 -56.1079 -56.0799 -28.5338 -28.4267 -28.3598 -28.1665
   -28.1647  -4.0129  -1.4560  -1.0898  -0.8215  -0.7623  -0.4603   4.9086
     6.2355   7.2729  10.2262  11.8492  12.2515  14.5459

          k =-0.4286 0.1429 0.1429 (  4829 PWs)   bands (ev):

   -95.0860 -56.3061 -56.1078 -56.0799 -28.5307 -28.4285 -28.3594 -28.1665
   -28.1647  -3.6892  -1.6397  -1.1273  -0.7985  -0.7687  -0.6581   3.8794
     7.0972   7.4797  10.6517  11.6446  12.9812  14.4920

          k =-0.1429 0.4286 0.1429 (  4829 PWs)   bands (ev):

   -95.0860 -56.3058 -56.1079 -56.0799 -28.5339 -28.4266 -28.3597 -28.1663
   -28.1649  -4.0117  -1.4461  -1.0778  -0.7826  -0.7700  -0.4643   4.5958
     6.4504   7.0928  10.3862  11.6358  13.4713  14.0505

          k = 0.5714-0.2857 0.2857 (  4820 PWs)   bands (ev):

   -95.0860 -56.3058 -56.1079 -56.0799 -28.5338 -28.4266 -28.3598 -28.1664
   -28.1646  -3.9480  -1.4392  -1.0891  -0.8307  -0.7447  -0.2924   4.7035
     5.3157   7.1842  10.1215  11.6385  13.0941  14.2546

          k =-0.5714 0.2857 0.2857 (  4820 PWs)   bands (ev):

   -95.0860 -56.3064 -56.1078 -56.0799 -28.5280 -28.4300 -28.3590 -28.1664
   -28.1646  -3.2208  -1.8666  -1.1571  -0.8125  -0.7614  -0.7262   3.1371
     6.7850   7.3756  10.5749  11.5690  14.2055  14.7955

          k =-0.2857 0.5714 0.2857 (  4820 PWs)   bands (ev):

   -95.0860 -56.3061 -56.1079 -56.0799 -28.5307 -28.4283 -28.3593 -28.1663
   -28.1648  -3.6126  -1.6000  -1.1174  -0.7761  -0.7520  -0.5267   3.4223
     6.2647   7.1857  11.1318  12.3429  12.8193  13.6808

          k =-0.2857 0.5714-0.5714 (  4823 PWs)   bands (ev):

   -95.0860 -56.3058 -56.1079 -56.0799 -28.5339 -28.4266 -28.3597 -28.1663
   -28.1647  -3.9285  -1.4323  -1.0861  -0.8317  -0.7398  -0.2216   4.6024
     4.9905   7.2312  10.0570  11.5869  13.6524  14.3572

          k = 0.2857-0.5714-0.5714 (  4823 PWs)   bands (ev):

   -95.0860 -56.3064 -56.1078 -56.0799 -28.5280 -28.4299 -28.3590 -28.1663
   -28.1646  -3.1926  -1.8513  -1.1556  -0.7910  -0.7668  -0.6981   3.0115
     6.5284   7.3115  10.5900  11.7683  14.4128  14.7214

          k = 0.5714-0.2857-0.5714 (  4823 PWs)   bands (ev):

   -95.0860 -56.3064 -56.1078 -56.0799 -28.5281 -28.4299 -28.3590 -28.1663
   -28.1647  -3.1935  -1.8432  -1.1498  -0.7783  -0.7486  -0.7240   2.9874
     6.2689   7.4724  10.9009  12.2576  13.4966  14.4977

          k =-0.1429 0.4286-0.4286 (  4831 PWs)   bands (ev):

   -95.0860 -56.3058 -56.1079 -56.0799 -28.5339 -28.4266 -28.3597 -28.1664
   -28.1647  -3.9677  -1.4406  -1.0841  -0.8221  -0.7481  -0.3391   4.6561
     5.4734   7.3719  10.1407  11.8591  13.2779  14.1314

          k = 0.1429-0.4286-0.4286 (  4831 PWs)   bands (ev):

   -95.0860 -56.3061 -56.1079 -56.0799 -28.5307 -28.4284 -28.3593 -28.1664
   -28.1647  -3.6358  -1.6160  -1.1236  -0.7877  -0.7592  -0.5693   3.5936
     6.4420   7.3814  10.8490  12.2175  12.6533  14.6540

          k = 0.4286-0.1429-0.4286 (  4831 PWs)   bands (ev):

   -95.0860 -56.3064 -56.1078 -56.0799 -28.5280 -28.4300 -28.3590 -28.1664
   -28.1646  -3.2494  -1.8738  -1.1524  -0.8218  -0.7609  -0.7506   3.2149
     6.6428   7.7624  10.8083  12.0824  13.7670  13.9074

          k =-0.0000 0.2857-0.2857 (  4818 PWs)   bands (ev):

   -95.0860 -56.3058 -56.1079 -56.0799 -28.5339 -28.4267 -28.3598 -28.1664
   -28.1648  -4.0374  -1.4580  -1.0835  -0.8067  -0.7668  -0.5125   4.8245
     6.5090   7.5022  10.2056  11.8410  12.8405  14.4582

          k = 0.2857-0.0000-0.2857 (  4818 PWs)   bands (ev):

   -95.0860 -56.3061 -56.1078 -56.0799 -28.5307 -28.4285 -28.3594 -28.1665
   -28.1647  -3.7181  -1.6480  -1.1241  -0.7973  -0.7788  -0.6923   3.9432
     7.2335   7.8005  10.5737  12.3992  12.5607  14.1198

          k = 0.5714 0.0000 0.0000 (  4837 PWs)   bands (ev):

   -95.0860 -56.3061 -56.1079 -56.0799 -28.5307 -28.4285 -28.3594 -28.1665
   -28.1646  -3.6458  -1.6293  -1.1355  -0.7989  -0.7624  -0.6035   3.8999
     6.8473   7.0154  10.6340  10.8421  13.1235  15.3017

          k = 0.7143-0.1429 0.1429 (  4829 PWs)   bands (ev):

   -95.0860 -56.3061 -56.1079 -56.0799 -28.5307 -28.4284 -28.3594 -28.1664
   -28.1645  -3.5881  -1.6100  -1.1393  -0.8028  -0.7494  -0.5045   3.8313
     6.0103   6.8669  10.4557  11.2028  12.9692  15.3729

          k =-0.7143 0.1429 0.1429 (  4829 PWs)   bands (ev):

   -95.0860 -56.3064 -56.1078 -56.0799 -28.5280 -28.4300 -28.3591 -28.1664
   -28.1645  -3.1897  -1.8648  -1.1675  -0.8128  -0.7562  -0.7116   3.2887
     6.6564   6.9587  10.3822  10.7985  14.6162  15.7323

          k =-0.1429 0.7143 0.1429 (  4829 PWs)   bands (ev):

   -95.0860 -56.3058 -56.1079 -56.0799 -28.5340 -28.4264 -28.3596 -28.1661
   -28.1650  -3.9253  -1.4126  -1.0689  -0.7875  -0.7431  -0.2138   4.2570
     5.3784   6.6007   9.9070  12.0563  13.8941  14.3244

          k =-0.1429 0.7143-0.7143 (  4837 PWs)   bands (ev):

   -95.0860 -56.3061 -56.1079 -56.0799 -28.5307 -28.4284 -28.3594 -28.1664
   -28.1645  -3.5609  -1.5960  -1.1351  -0.8070  -0.7463  -0.4259   3.7927
     5.3456   6.9306  10.4759  12.1251  13.0191  15.0129

          k = 0.1429-0.7143-0.7143 (  4837 PWs)   bands (ev):

   -95.0860 -56.3064 -56.1078 -56.0799 -28.5280 -28.4299 -28.3590 -28.1664
   -28.1645  -3.1564  -1.8453  -1.1643  -0.8058  -0.7588  -0.6588   3.1907
     6.0518   6.9415  10.4064  11.8033  14.6621  15.4193

          k = 0.7143-0.1429-0.7143 (  4837 PWs)   bands (ev):

   -95.0860 -56.3061 -56.1079 -56.0799 -28.5308 -28.4282 -28.3592 -28.1662
   -28.1648  -3.5617  -1.5698  -1.1111  -0.7830  -0.7384  -0.3991   3.4282
     5.3092   6.8698  11.8135  12.0370  13.5206  13.5678

          k = 0.0000 0.5714-0.5714 (  4840 PWs)   bands (ev):

   -95.0860 -56.3061 -56.1079 -56.0799 -28.5307 -28.4284 -28.3593 -28.1663
   -28.1646  -3.5821  -1.5986  -1.1282  -0.8012  -0.7520  -0.4555   3.6602
     5.5562   7.1416  10.7919  12.3700  12.9570  14.7268

          k = 0.5714 0.0000-0.5714 (  4840 PWs)   bands (ev):

   -95.0860 -56.3064 -56.1078 -56.0799 -28.5281 -28.4299 -28.3590 -28.1663
   -28.1647  -3.1846  -1.8349  -1.1472  -0.7863  -0.7471  -0.7072   3.1192
     5.7718   7.3710  11.7587  12.6365  13.1442  13.9736

          k = 0.8571 0.0000 0.0000 (  4812 PWs)   bands (ev):

   -95.0860 -56.3064 -56.1078 -56.0799 -28.5280 -28.4299 -28.3591 -28.1664
   -28.1644  -3.1507  -1.8565  -1.1761  -0.7911  -0.7506  -0.7031   3.3099
     6.6128   6.7026   9.9027  10.2678  15.3554  16.6524

          k = 0.0000 0.8571-0.8571 (  4850 PWs)   bands (ev):

   -95.0860 -56.3064 -56.1078 -56.0799 -28.5280 -28.4299 -28.3591 -28.1664
   -28.1644  -3.1365  -1.8476  -1.1742  -0.7980  -0.7497  -0.6708   3.2924
     6.1871   6.7072  10.0216  10.7976  15.1777  16.4029

          k = 0.8571 0.0000-0.8571 (  4850 PWs)   bands (ev):

   -95.0860 -56.3058 -56.1079 -56.0799 -28.5340 -28.4263 -28.3596 -28.1660
   -28.1650  -3.8892  -1.3970  -1.0646  -0.7924  -0.7307  -0.0697   4.2233
     4.8170   6.4023   9.6669  11.8579  14.8173  14.9174

          k = 0.5714-0.2857 0.0000 (  4817 PWs)   bands (ev):

   -95.0860 -56.3061 -56.1079 -56.0799 -28.5307 -28.4284 -28.3594 -28.1664
   -28.1646  -3.6256  -1.6200  -1.1327  -0.8114  -0.7516  -0.5526   3.8017
     6.1830   7.2906  10.8350  11.5640  12.8639  14.4510

          k = 0.2857 0.0000 0.5714 (  4817 PWs)   bands (ev):

   -95.0860 -56.3058 -56.1079 -56.0799 -28.5338 -28.4266 -28.3598 -28.1664
   -28.1646  -3.9567  -1.4419  -1.0919  -0.8154  -0.7586  -0.3373   4.7823
     5.9737   6.4332  10.5598  11.7050  11.9391  15.6292

          k = 0.2857 0.0000-0.5714 (  4817 PWs)   bands (ev):

   -95.0860 -56.3064 -56.1078 -56.0799 -28.5280 -28.4300 -28.3591 -28.1664
   -28.1646  -3.2357  -1.8730  -1.1571  -0.8203  -0.7637  -0.7409   3.2838
     6.5918   7.5095  10.9546  11.3137  13.9853  14.5161

          k =-0.2857 0.5714-0.8571 (  4822 PWs)   bands (ev):

   -95.0860 -56.3061 -56.1079 -56.0799 -28.5307 -28.4284 -28.3594 -28.1664
   -28.1645  -3.5763  -1.6036  -1.1353  -0.8229  -0.7434  -0.4449   3.8440
     5.3407   7.1778  10.6470  12.1928  13.0952  14.1651

          k = 0.2857-0.5714-0.8571 (  4822 PWs)   bands (ev):

   -95.0860 -56.3064 -56.1078 -56.0799 -28.5280 -28.4299 -28.3591 -28.1664
   -28.1645  -3.1739  -1.8564  -1.1651  -0.8293  -0.7553  -0.6619   3.2015
     6.3753   6.8482  10.9882  11.2671  14.1862  15.5503

          k = 0.8571-0.2857-0.5714 (  4822 PWs)   bands (ev):

   -95.0860 -56.3061 -56.1079 -56.0799 -28.5307 -28.4283 -28.3593 -28.1662
   -28.1647  -3.5751  -1.5837  -1.1178  -0.7772  -0.7525  -0.4402   3.4581
     5.6532   6.8879  11.4931  12.2300  12.8037  14.1256

          k =-0.5714 0.8571-0.2857 (  4822 PWs)   bands (ev):

   -95.0860 -56.3058 -56.1079 -56.0799 -28.5339 -28.4265 -28.3597 -28.1663
   -28.1647  -3.9129  -1.4258  -1.0869  -0.8085  -0.7518  -0.2021   4.6231
     5.2873   6.2967  10.3470  11.6599  12.9987  15.3390

          k =-0.5714-0.8571 0.2857 (  4822 PWs)   bands (ev):

   -95.0860 -56.3064 -56.1078 -56.0799 -28.5281 -28.4299 -28.3590 -28.1663
   -28.1646  -3.1754  -1.8381  -1.1531  -0.7791  -0.7595  -0.6967   3.1151
     5.9589   7.1772  11.2155  12.0087  13.8064  14.4975

          k =-0.1429 0.7143-1.0000 (  4843 PWs)   bands (ev):

   -95.0860 -56.3064 -56.1078 -56.0799 -28.5280 -28.4299 -28.3591 -28.1664
   -28.1644  -3.1487  -1.8548  -1.1734  -0.8300  -0.7481  -0.6516   3.3346
     6.1858   6.6522  10.5077  10.9916  14.5313  15.8009

          k =-0.7143 1.0000-0.1429 (  4843 PWs)   bands (ev):

   -95.0860 -56.3061 -56.1079 -56.0799 -28.5307 -28.4283 -28.3594 -28.1663
   -28.1645  -3.5537  -1.5927  -1.1368  -0.7835  -0.7520  -0.4393   3.7338
     5.9588   6.2020  10.8846  11.2558  12.7571  16.1162

          k =-0.7143-1.0000 0.1429 (  4843 PWs)   bands (ev):

   -95.0860 -56.3064 -56.1078 -56.0799 -28.5280 -28.4299 -28.3590 -28.1664
   -28.1645  -3.1493  -1.8400  -1.1647  -0.7708  -0.7611  -0.6891   3.2200
     6.0872   6.7608  10.6829  11.0732  14.8862  15.0493

          k = 0.0000 0.5714-0.8571 (  4824 PWs)   bands (ev):

   -95.0860 -56.3064 -56.1078 -56.0799 -28.5280 -28.4299 -28.3591 -28.1664
   -28.1644  -3.1428  -1.8510  -1.1716  -0.8399  -0.7492  -0.6242   3.3427
     5.8870   6.6623  10.6872  11.7236  14.3418  15.0271

          k = 0.8571 0.0000-0.5714 (  4824 PWs)   bands (ev):

   -95.0860 -56.3061 -56.1079 -56.0799 -28.5308 -28.4282 -28.3592 -28.1662
   -28.1648  -3.5503  -1.5684  -1.1149  -0.7791  -0.7432  -0.3806   3.5093
     5.2439   6.6026  11.8011  12.2735  13.1521  13.6488

          k =-0.5714 0.8571 0.0000 (  4824 PWs)   bands (ev):

   -95.0860 -56.3061 -56.1079 -56.0799 -28.5307 -28.4283 -28.3593 -28.1663
   -28.1646  -3.5491  -1.5805  -1.1264  -0.7763  -0.7551  -0.4003   3.6217
     5.4680   6.4552  11.1977  12.0852  12.8433  14.7515

     the Fermi energy is     7.9228 ev

!    total energy              =    -485.60510125 Ry
     estimated scf accuracy    <       0.00000338 Ry

     The total energy is the sum of the following terms:
     one-electron contribution =    -331.81278743 Ry
     hartree contribution      =     166.93169545 Ry
     xc contribution           =     -46.31851871 Ry
     ewald contribution        =    -274.40549057 Ry

     convergence has been achieved in   5 iterations

     Forces acting on atoms (cartesian axes, Ry/au):

     atom    1 type  1   force =     0.00000000   -0.09849371    0.00000000
     atom    2 type  2   force =     0.00000000    0.09849371    0.00000000

     Total force =     0.139291     Total SCF correction =     0.006654


     Computing stress (Cartesian axis) and pressure

          total   stress  (Ry/bohr**3)                   (kbar)     P=       95.63
   0.00092584   0.00000000  -0.00096410          136.20        0.00     -141.82
   0.00000000   0.00009855   0.00000000            0.00       14.50        0.00
  -0.00096410   0.00000000   0.00092584         -141.82        0.00      136.20


     Writing all to output data dir ./tmp/CdTe.save/ :
     XML data file, charge density, pseudopotentials, collected wavefunctions

     init_run     :      3.82s CPU      4.15s WALL (       1 calls)
     electrons    :     77.44s CPU     79.02s WALL (       1 calls)
     forces       :      0.96s CPU      0.97s WALL (       1 calls)
     stress       :      3.77s CPU      3.81s WALL (       1 calls)

     Called by init_run:
     wfcinit      :      3.57s CPU      3.86s WALL (       1 calls)
     potinit      :      0.10s CPU      0.13s WALL (       1 calls)
     hinit0       :      0.08s CPU      0.09s WALL (       1 calls)

     Called by electrons:
     c_bands      :     70.63s CPU     72.08s WALL (       6 calls)
     sum_band     :      6.64s CPU      6.76s WALL (       6 calls)
     v_of_rho     :      0.20s CPU      0.23s WALL (       6 calls)
     mix_rho      :      0.02s CPU      0.02s WALL (       6 calls)

     Called by c_bands:
     init_us_2    :      1.02s CPU      1.15s WALL (     960 calls)
     cegterg      :     69.18s CPU     70.52s WALL (     384 calls)

     Called by *egterg:
     cdiaghg      :      0.66s CPU      0.68s WALL (    1785 calls)
     h_psi        :     51.47s CPU     52.70s WALL (    1913 calls)
     g_psi        :      0.27s CPU      0.28s WALL (    1465 calls)

     Called by h_psi:
     h_psi:calbec :      4.98s CPU      5.02s WALL (    1913 calls)
     vloc_psi     :     42.02s CPU     43.00s WALL (    1913 calls)
                                        0.00s GPU  (    1913 calls)
     add_vuspsi   :      4.24s CPU      4.27s WALL (    1913 calls)

     General routines
     calbec       :      8.58s CPU      8.63s WALL (    3001 calls)
     fft          :      0.11s CPU      0.11s WALL (      68 calls)
     ffts         :      0.01s CPU      0.01s WALL (       6 calls)
     fftw         :     43.05s CPU     43.98s WALL (   68870 calls)


     PWSCF        :   1m26.05s CPU   1m28.10s WALL


   This run was terminated on:  20:51:24  11Jan2026            

=------------------------------------------------------------------------------=
   JOB DONE.
=------------------------------------------------------------------------------=
