
     Program PWSCF v.7.5 starts on 11Jan2026 at 19:25:28 

     This program is part of the open-source Quantum ESPRESSO suite
     for quantum simulation of materials; please cite
         "P. Giannozzi et al., J. Phys.:Condens. Matter 21 395502 (2009);
         "P. Giannozzi et al., J. Phys.:Condens. Matter 29 465901 (2017);
         "P. Giannozzi et al., J. Chem. Phys. 152 154105 (2020);
          URL http://www.quantum-espresso.org", 
     in publications or presentations arising from this work. More details at
     http://www.quantum-espresso.org/quote

     Serial version
     723 MiB available memory on the printing compute node when the environment starts

     Waiting for input...
     Reading input from standard input

     Current dimensions of program PWSCF are:
     Max number of different atomic species (ntypx) = 10
     Max number of k-points (npk) =  40000
     Max angular momentum in pseudopotentials (lmaxx) =  4
     Message from routine iosys:
     BEWARE:  force calculation with tetrahedra (not recommanded)
     Message from routine iosys:
     BEWARE: stress calculation with tetrahedra (not recommanded)
     [opt_tetra]  Optimized tetrahedron method is used.


     G-vector sticks info
     --------------------
     sticks:   dense  smooth     PW     G-vecs:    dense   smooth      PW
     Sum        1393    1393    409                34327    34327    5329

     Using Slab Decomposition



     bravais-lattice index     =            2
     lattice parameter (alat)  =      12.0000  a.u.
     unit-cell volume          =     432.0000 (a.u.)^3
     number of atoms/cell      =            2
     number of atomic types    =            2
     number of electrons       =        36.00
     number of Kohn-Sham states=           22
     kinetic-energy cutoff     =      70.0000  Ry
     charge density cutoff     =     280.0000  Ry
     scf convergence threshold =      1.0E-05
     mixing beta               =       0.7000
     number of iterations used =            8  plain     mixing
     Exchange-correlation= PBE
                           (   1   4   3   4   0   0   0)

     celldm(1)=  12.000000  celldm(2)=   0.000000  celldm(3)=   0.000000
     celldm(4)=   0.000000  celldm(5)=   0.000000  celldm(6)=   0.000000

     crystal axes: (cart. coord. in units of alat)
               a(1) = (  -0.500000   0.000000   0.500000 )  
               a(2) = (   0.000000   0.500000   0.500000 )  
               a(3) = (  -0.500000   0.500000   0.000000 )  

     reciprocal axes: (cart. coord. in units 2 pi/alat)
               b(1) = ( -1.000000 -1.000000  1.000000 )  
               b(2) = (  1.000000  1.000000  1.000000 )  
               b(3) = ( -1.000000  1.000000 -1.000000 )  


     PseudoPot. # 1 for Cd read from file:
     ./PSEUDO/Cd_ONCV_PBE-1.2.upf
     MD5 check sum: 810a600e5a5ac944c8c8f48f0d721646
     Pseudo is Norm-conserving, Zval = 20.0
     Generated using ONCVPSP code by D. R. Hamann
     Using radial grid of  602 points,  6 beta functions with: 
                l(1) =   0
                l(2) =   0
                l(3) =   1
                l(4) =   1
                l(5) =   2
                l(6) =   2

     PseudoPot. # 2 for Te read from file:
     ./PSEUDO/Te_ONCV_PBE-1.2.upf
     MD5 check sum: dd4de4dac1e38587f63aaf3700bb29d3
     Pseudo is Norm-conserving, Zval = 16.0
     Generated using ONCVPSP code by D. R. Hamann
     Using radial grid of  602 points,  6 beta functions with: 
                l(1) =   0
                l(2) =   0
                l(3) =   1
                l(4) =   1
                l(5) =   2
                l(6) =   2

     atomic species   valence    mass     pseudopotential
     Cd               20.00   112.40000     Cd( 1.00)
     Te               16.00   127.60000     Te( 1.00)

     24 Sym. Ops. (no inversion) found



   Cartesian axes

     site n.     atom                  positions (alat units)
         1        Cd     tau(   1) = (   0.0000000   0.0000000   0.0000000  )
         2        Te     tau(   2) = (  -0.2500000   0.2500000   0.2500000  )

     number of k points=    20 (tetrahedron method)
                       cart. coord. in units 2pi/alat
        k(    1) = (   0.0000000   0.0000000   0.0000000), wk =   0.0058309
        k(    2) = (  -0.1428571   0.1428571  -0.1428571), wk =   0.0466472
        k(    3) = (  -0.2857143   0.2857143  -0.2857143), wk =   0.0466472
        k(    4) = (  -0.4285714   0.4285714  -0.4285714), wk =   0.0466472
        k(    5) = (   0.0000000   0.2857143   0.0000000), wk =   0.0349854
        k(    6) = (  -0.1428571   0.4285714  -0.1428571), wk =   0.1399417
        k(    7) = (  -0.2857143   0.5714286  -0.2857143), wk =   0.1399417
        k(    8) = (   0.5714286  -0.2857143   0.5714286), wk =   0.1399417
        k(    9) = (   0.4285714  -0.1428571   0.4285714), wk =   0.1399417
        k(   10) = (   0.2857143  -0.0000000   0.2857143), wk =   0.0699708
        k(   11) = (   0.0000000   0.5714286   0.0000000), wk =   0.0349854
        k(   12) = (  -0.1428571   0.7142857  -0.1428571), wk =   0.1399417
        k(   13) = (   0.7142857  -0.1428571   0.7142857), wk =   0.1399417
        k(   14) = (   0.5714286   0.0000000   0.5714286), wk =   0.0699708
        k(   15) = (   0.0000000   0.8571429   0.0000000), wk =   0.0349854
        k(   16) = (   0.8571429   0.0000000   0.8571429), wk =   0.0699708
        k(   17) = (  -0.2857143   0.5714286   0.0000000), wk =   0.1399417
        k(   18) = (   0.5714286  -0.2857143   0.8571429), wk =   0.2798834
        k(   19) = (   0.7142857  -0.1428571   1.0000000), wk =   0.1399417
        k(   20) = (   0.5714286   0.0000000   0.8571429), wk =   0.1399417

     Dense  grid:    34327 G-vectors     FFT dimensions: (  45,  45,  45)

     Estimated max dynamical RAM per process >      62.56 MB

     Initial potential from superposition of free atoms

     starting charge      35.9267, renormalised to      36.0000
     Starting wfcs are random

     total cpu time spent up to now is        1.8 secs

     Self-consistent Calculation

     iteration #  1     ecut=    70.00 Ry     beta= 0.70
     Davidson diagonalization with overlap
     ethr =  1.00E-02,  avg # of iterations =  9.3

     Threshold (ethr) on eigenvalues was too large:
     Diagonalizing with lowered threshold

     Davidson diagonalization with overlap
     ethr =  1.91E-04,  avg # of iterations =  2.3

     total cpu time spent up to now is       12.1 secs

     total energy              =    -485.68491910 Ry
     estimated scf accuracy    <       0.06231762 Ry

     iteration #  2     ecut=    70.00 Ry     beta= 0.70
     Davidson diagonalization with overlap
     ethr =  1.73E-04,  avg # of iterations =  2.0

     total cpu time spent up to now is       14.8 secs

     total energy              =    -485.70428861 Ry
     estimated scf accuracy    <       0.02197104 Ry

     iteration #  3     ecut=    70.00 Ry     beta= 0.70
     Davidson diagonalization with overlap
     ethr =  6.10E-05,  avg # of iterations =  2.0

     total cpu time spent up to now is       17.3 secs

     total energy              =    -485.70906799 Ry
     estimated scf accuracy    <       0.00025747 Ry

     iteration #  4     ecut=    70.00 Ry     beta= 0.70
     Davidson diagonalization with overlap
     ethr =  7.15E-07,  avg # of iterations =  3.0

     total cpu time spent up to now is       20.1 secs

     total energy              =    -485.70910415 Ry
     estimated scf accuracy    <       0.00002641 Ry

     iteration #  5     ecut=    70.00 Ry     beta= 0.70
     Davidson diagonalization with overlap
     ethr =  7.34E-08,  avg # of iterations =  2.0

     total cpu time spent up to now is       22.6 secs

     End of self-consistent calculation

          k = 0.0000 0.0000 0.0000 (  4279 PWs)   bands (ev):

   -92.8040 -53.8644 -53.8644 -53.8644 -26.7228 -26.7228 -26.7228 -26.7101
   -26.7101  -2.0408   1.0065   1.0065   1.0065   1.3215   1.3215   9.5068
     9.5068   9.5068  10.4673  14.0927  14.0927  14.0927

          k =-0.1429 0.1429-0.1429 (  4294 PWs)   bands (ev):

   -92.8040 -53.8644 -53.8644 -53.8644 -26.7228 -26.7227 -26.7227 -26.7100
   -26.7100  -1.9547   1.0235   1.0235   1.0705   1.3201   1.3201   8.0072
     9.3093   9.3093  11.4214  14.1670  14.3830  14.3830

          k =-0.2857 0.2857-0.2857 (  4281 PWs)   bands (ev):

   -92.8040 -53.8645 -53.8644 -53.8644 -26.7229 -26.7225 -26.7225 -26.7099
   -26.7099  -1.7601   1.0578   1.0578   1.2975   1.3220   1.3220   6.1961
     8.9330   8.9330  11.5755  14.7304  14.7305  15.4036

          k =-0.4286 0.4286-0.4286 (  4257 PWs)   bands (ev):

   -92.8040 -53.8645 -53.8644 -53.8644 -26.7229 -26.7224 -26.7224 -26.7099
   -26.7099  -1.6061   1.0798   1.0798   1.3302   1.3302   1.6434   4.9258
     8.6755   8.6755  11.4186  14.7130  14.7130  16.5704

          k = 0.0000 0.2857 0.0000 (  4276 PWs)   bands (ev):

   -92.8040 -53.8644 -53.8644 -53.8644 -26.7229 -26.7226 -26.7226 -26.7101
   -26.7099  -1.9262   1.0402   1.0402   1.0684   1.3120   1.3284   8.0178
     8.9741   8.9741  11.9598  13.3227  14.8878  14.8878

          k =-0.1429 0.4286-0.1429 (  4264 PWs)   bands (ev):

   -92.8040 -53.8645 -53.8644 -53.8644 -26.7230 -26.7225 -26.7225 -26.7101
   -26.7098  -1.7683   1.0656   1.0773   1.2145   1.3306   1.3340   6.6552
     8.5495   8.5577  12.3986  13.5045  15.2207  15.4693

          k =-0.2857 0.5714-0.2857 (  4282 PWs)   bands (ev):

   -92.8040 -53.8645 -53.8644 -53.8644 -26.7230 -26.7225 -26.7223 -26.7100
   -26.7098  -1.6025   1.0883   1.1030   1.2946   1.3372   1.5959   5.3065
     8.0534   8.3513  12.2788  14.1723  15.4358  15.7732

          k = 0.5714-0.2857 0.5714 (  4277 PWs)   bands (ev):

   -92.8040 -53.8645 -53.8644 -53.8644 -26.7229 -26.7225 -26.7224 -26.7099
   -26.7098  -1.5528   1.0965   1.1034   1.3173   1.3281   1.7617   4.8616
     7.7567   8.4583  12.2402  14.3037  15.1793  16.8422

          k = 0.4286-0.1429 0.4286 (  4281 PWs)   bands (ev):

   -92.8040 -53.8645 -53.8644 -53.8644 -26.7229 -26.7225 -26.7225 -26.7099
   -26.7099  -1.6529   1.0797   1.0882   1.3128   1.3144   1.4859   5.7032
     7.8266   8.8239  12.3391  14.5689  14.9568  15.5074

          k = 0.2857-0.0000 0.2857 (  4281 PWs)   bands (ev):

   -92.8040 -53.8644 -53.8644 -53.8644 -26.7229 -26.7226 -26.7226 -26.7100
   -26.7099  -1.8325   1.0428   1.0592   1.1773   1.3110   1.3323   7.0541
     8.4089   9.2265  12.1488  14.0898  14.5475  15.0531

          k = 0.0000 0.5714 0.0000 (  4268 PWs)   bands (ev):

   -92.8040 -53.8645 -53.8644 -53.8644 -26.7232 -26.7223 -26.7223 -26.7102
   -26.7097  -1.6699   1.1216   1.1216   1.1969   1.3439   1.4015   6.3364
     8.0798   8.0798  12.3430  12.8351  16.5877  16.5934

          k =-0.1429 0.7143-0.1429 (  4246 PWs)   bands (ev):

   -92.8040 -53.8645 -53.8644 -53.8644 -26.7233 -26.7222 -26.7222 -26.7101
   -26.7096  -1.5426   1.1360   1.1546   1.2337   1.3474   1.6455   5.4919
     7.4733   7.8323  12.3845  13.1564  16.1274  16.9722

          k = 0.7143-0.1429 0.7143 (  4275 PWs)   bands (ev):

   -92.8040 -53.8645 -53.8645 -53.8644 -26.7230 -26.7224 -26.7222 -26.7100
   -26.7097  -1.4830   1.1280   1.1558   1.2758   1.3349   1.8827   5.0221
     6.8377   7.9413  12.4854  14.4124  16.2308  16.5456

          k = 0.5714 0.0000 0.5714 (  4273 PWs)   bands (ev):

   -92.8040 -53.8645 -53.8645 -53.8644 -26.7228 -26.7226 -26.7223 -26.7099
   -26.7098  -1.5307   1.1139   1.1247   1.3050   1.3163   1.7612   5.2786
     6.8238   8.3544  12.7426  14.7971  15.8319  15.8589

          k = 0.0000 0.8571 0.0000 (  4272 PWs)   bands (ev):

   -92.8040 -53.8645 -53.8644 -53.8644 -26.7235 -26.7220 -26.7220 -26.7102
   -26.7095  -1.4728   1.1897   1.1937   1.1937   1.3564   1.7869   5.1054
     7.5083   7.5083  11.9905  12.3015  18.2486  18.5067

          k = 0.8571 0.0000 0.8571 (  4264 PWs)   bands (ev):

   -92.8040 -53.8645 -53.8645 -53.8644 -26.7234 -26.7221 -26.7221 -26.7102
   -26.7095  -1.4473   1.1631   1.1945   1.2310   1.3503   1.9131   4.9440
     7.0378   7.5514  12.1670  12.9165  17.7182  18.0931

          k =-0.2857 0.5714 0.0000 (  4247 PWs)   bands (ev):

   -92.8040 -53.8645 -53.8644 -53.8644 -26.7230 -26.7224 -26.7223 -26.7101
   -26.7097  -1.6260   1.1000   1.1126   1.2629   1.3354   1.5038   5.8851
     7.5455   8.3610  13.0115  13.5304  14.8770  16.4178

          k = 0.5714-0.2857 0.8571 (  4271 PWs)   bands (ev):

   -92.8040 -53.8645 -53.8645 -53.8644 -26.7229 -26.7226 -26.7222 -26.7100
   -26.7097  -1.5158   1.1190   1.1332   1.2893   1.3295   1.7985   5.1239
     7.0902   7.9987  13.1086  14.0644  15.2120  16.8797

          k = 0.7143-0.1429 1.0000 (  4273 PWs)   bands (ev):

   -92.8040 -53.8645 -53.8645 -53.8644 -26.7232 -26.7223 -26.7221 -26.7101
   -26.7096  -1.4686   1.1581   1.1635   1.2514   1.3420   1.8695   5.0976
     7.1080   7.3996  12.9841  13.1336  15.9865  17.7188

          k = 0.5714 0.0000 0.8571 (  4274 PWs)   bands (ev):

   -92.8040 -53.8645 -53.8645 -53.8644 -26.7229 -26.7226 -26.7221 -26.7100
   -26.7096  -1.4577   1.1436   1.1612   1.2822   1.3243   1.9527   5.0395
     6.7209   7.4787  13.2549  14.4143  15.5245  16.2915

     the Fermi energy is     9.8105 ev

!    total energy              =    -485.70910840 Ry
     estimated scf accuracy    <       0.00000136 Ry

     The total energy is the sum of the following terms:
     one-electron contribution =    -299.15208165 Ry
     hartree contribution      =     153.18226897 Ry
     xc contribution           =     -46.33025060 Ry
     ewald contribution        =    -293.40904512 Ry

     convergence has been achieved in   5 iterations

     Forces acting on atoms (cartesian axes, Ry/au):

     atom    1 type  1   force =     0.00000000    0.00000000    0.00000000
     atom    2 type  2   force =     0.00000000    0.00000000    0.00000000

     Total force =     0.000000     Total SCF correction =     0.000000


     Computing stress (Cartesian axis) and pressure

          total   stress  (Ry/bohr**3)                   (kbar)     P=       59.93
   0.00040742   0.00000000  -0.00000000           59.93        0.00       -0.00
   0.00000000   0.00040742   0.00000000            0.00       59.93        0.00
  -0.00000000   0.00000000   0.00040742           -0.00        0.00       59.93


     Writing all to output data dir ./tmp/CdTe.save/ :
     XML data file, charge density, pseudopotentials, collected wavefunctions

     init_run     :      1.65s CPU      1.80s WALL (       1 calls)
     electrons    :     20.43s CPU     20.80s WALL (       1 calls)
     forces       :      0.27s CPU      0.27s WALL (       1 calls)
     stress       :      1.07s CPU      1.09s WALL (       1 calls)

     Called by init_run:
     wfcinit      :      1.45s CPU      1.57s WALL (       1 calls)
     potinit      :      0.09s CPU      0.11s WALL (       1 calls)
     hinit0       :      0.08s CPU      0.09s WALL (       1 calls)

     Called by electrons:
     c_bands      :     18.50s CPU     18.81s WALL (       6 calls)
     sum_band     :      1.80s CPU      1.84s WALL (       6 calls)
     v_of_rho     :      0.16s CPU      0.18s WALL (       6 calls)
     mix_rho      :      0.01s CPU      0.01s WALL (       6 calls)

     Called by c_bands:
     init_us_2    :      0.27s CPU      0.31s WALL (     300 calls)
     cegterg      :     18.11s CPU     18.41s WALL (     120 calls)

     Called by *egterg:
     cdiaghg      :      0.19s CPU      0.19s WALL (     513 calls)
     h_psi        :     13.77s CPU     14.08s WALL (     553 calls)
     g_psi        :      0.07s CPU      0.08s WALL (     413 calls)

     Called by h_psi:
     h_psi:calbec :      1.32s CPU      1.33s WALL (     553 calls)
     vloc_psi     :     11.20s CPU     11.47s WALL (     553 calls)
                                        0.00s GPU  (     553 calls)
     add_vuspsi   :      1.19s CPU      1.19s WALL (     553 calls)

     General routines
     calbec       :      2.30s CPU      2.32s WALL (     893 calls)
     fft          :      0.07s CPU      0.07s WALL (      68 calls)
     ffts         :      0.01s CPU      0.01s WALL (       6 calls)
     fftw         :     11.43s CPU     11.71s WALL (   21370 calls)


     PWSCF        :     23.46s CPU     24.03s WALL


   This run was terminated on:  19:25:52  11Jan2026            

=------------------------------------------------------------------------------=
   JOB DONE.
=------------------------------------------------------------------------------=
