
     Program PWSCF v.7.5 starts on 12Jan2026 at  7:15:28 

     This program is part of the open-source Quantum ESPRESSO suite
     for quantum simulation of materials; please cite
         "P. Giannozzi et al., J. Phys.:Condens. Matter 21 395502 (2009);
         "P. Giannozzi et al., J. Phys.:Condens. Matter 29 465901 (2017);
         "P. Giannozzi et al., J. Chem. Phys. 152 154105 (2020);
          URL http://www.quantum-espresso.org", 
     in publications or presentations arising from this work. More details at
     http://www.quantum-espresso.org/quote

     Serial version
     6798 MiB available memory on the printing compute node when the environment starts

     Waiting for input...
     Reading input from standard input

     Current dimensions of program PWSCF are:
     Max number of different atomic species (ntypx) = 10
     Max number of k-points (npk) =  40000
     Max angular momentum in pseudopotentials (lmaxx) =  4
     Message from routine iosys:
     BEWARE:  force calculation with tetrahedra (not recommanded)
     Message from routine iosys:
     BEWARE: stress calculation with tetrahedra (not recommanded)
     [opt_tetra]  Optimized tetrahedron method is used.


     G-vector sticks info
     --------------------
     sticks:   dense  smooth     PW     G-vecs:    dense   smooth      PW
     Sum        1507    1507    433                38781    38781    5961

     Using Slab Decomposition



     bravais-lattice index     =            2
     lattice parameter (alat)  =      12.5000  a.u.
     unit-cell volume          =     488.2812 (a.u.)^3
     number of atoms/cell      =            2
     number of atomic types    =            2
     number of electrons       =        36.00
     number of Kohn-Sham states=           22
     kinetic-energy cutoff     =      70.0000  Ry
     charge density cutoff     =     280.0000  Ry
     scf convergence threshold =      1.0E-05
     mixing beta               =       0.7000
     number of iterations used =            8  plain     mixing
     Exchange-correlation= PBE
                           (   1   4   3   4   0   0   0)

     celldm(1)=  12.500000  celldm(2)=   0.000000  celldm(3)=   0.000000
     celldm(4)=   0.000000  celldm(5)=   0.000000  celldm(6)=   0.000000

     crystal axes: (cart. coord. in units of alat)
               a(1) = (  -0.500000   0.000000   0.500000 )  
               a(2) = (   0.000000   0.500000   0.500000 )  
               a(3) = (  -0.500000   0.500000   0.000000 )  

     reciprocal axes: (cart. coord. in units 2 pi/alat)
               b(1) = ( -1.000000 -1.000000  1.000000 )  
               b(2) = (  1.000000  1.000000  1.000000 )  
               b(3) = ( -1.000000  1.000000 -1.000000 )  


     PseudoPot. # 1 for Cd read from file:
     ./PSEUDO/Cd_ONCV_PBE-1.2.upf
     MD5 check sum: 810a600e5a5ac944c8c8f48f0d721646
     Pseudo is Norm-conserving, Zval = 20.0
     Generated using ONCVPSP code by D. R. Hamann
     Using radial grid of  602 points,  6 beta functions with: 
                l(1) =   0
                l(2) =   0
                l(3) =   1
                l(4) =   1
                l(5) =   2
                l(6) =   2

     PseudoPot. # 2 for Te read from file:
     ./PSEUDO/Te_ONCV_PBE-1.2.upf
     MD5 check sum: dd4de4dac1e38587f63aaf3700bb29d3
     Pseudo is Norm-conserving, Zval = 16.0
     Generated using ONCVPSP code by D. R. Hamann
     Using radial grid of  602 points,  6 beta functions with: 
                l(1) =   0
                l(2) =   0
                l(3) =   1
                l(4) =   1
                l(5) =   2
                l(6) =   2

     atomic species   valence    mass     pseudopotential
     Cd               20.00   112.40000     Cd( 1.00)
     Te               16.00   127.60000     Te( 1.00)

     24 Sym. Ops. (no inversion) found



   Cartesian axes

     site n.     atom                  positions (alat units)
         1        Cd     tau(   1) = (   0.0000000   0.0000000   0.0000000  )
         2        Te     tau(   2) = (  -0.2500000   0.2500000   0.2500000  )

     number of k points=    20 (tetrahedron method)
                       cart. coord. in units 2pi/alat
        k(    1) = (   0.0000000   0.0000000   0.0000000), wk =   0.0058309
        k(    2) = (  -0.1428571   0.1428571  -0.1428571), wk =   0.0466472
        k(    3) = (  -0.2857143   0.2857143  -0.2857143), wk =   0.0466472
        k(    4) = (  -0.4285714   0.4285714  -0.4285714), wk =   0.0466472
        k(    5) = (   0.0000000   0.2857143   0.0000000), wk =   0.0349854
        k(    6) = (  -0.1428571   0.4285714  -0.1428571), wk =   0.1399417
        k(    7) = (  -0.2857143   0.5714286  -0.2857143), wk =   0.1399417
        k(    8) = (   0.5714286  -0.2857143   0.5714286), wk =   0.1399417
        k(    9) = (   0.4285714  -0.1428571   0.4285714), wk =   0.1399417
        k(   10) = (   0.2857143  -0.0000000   0.2857143), wk =   0.0699708
        k(   11) = (   0.0000000   0.5714286   0.0000000), wk =   0.0349854
        k(   12) = (  -0.1428571   0.7142857  -0.1428571), wk =   0.1399417
        k(   13) = (   0.7142857  -0.1428571   0.7142857), wk =   0.1399417
        k(   14) = (   0.5714286   0.0000000   0.5714286), wk =   0.0699708
        k(   15) = (   0.0000000   0.8571429   0.0000000), wk =   0.0349854
        k(   16) = (   0.8571429   0.0000000   0.8571429), wk =   0.0699708
        k(   17) = (  -0.2857143   0.5714286   0.0000000), wk =   0.1399417
        k(   18) = (   0.5714286  -0.2857143   0.8571429), wk =   0.2798834
        k(   19) = (   0.7142857  -0.1428571   1.0000000), wk =   0.1399417
        k(   20) = (   0.5714286   0.0000000   0.8571429), wk =   0.1399417

     Dense  grid:    38781 G-vectors     FFT dimensions: (  48,  48,  48)

     Estimated max dynamical RAM per process >      70.87 MB

     Initial potential from superposition of free atoms

     starting charge      35.9267, renormalised to      36.0000
     Starting wfcs are random

     total cpu time spent up to now is        1.1 secs

     Self-consistent Calculation

     iteration #  1     ecut=    70.00 Ry     beta= 0.70
     Davidson diagonalization with overlap
     ethr =  1.00E-02,  avg # of iterations =  9.4

     Threshold (ethr) on eigenvalues was too large:
     Diagonalizing with lowered threshold

     Davidson diagonalization with overlap
     ethr =  2.07E-04,  avg # of iterations =  2.2

     total cpu time spent up to now is       13.3 secs

     total energy              =    -485.69294669 Ry
     estimated scf accuracy    <       0.06684977 Ry

     iteration #  2     ecut=    70.00 Ry     beta= 0.70
     Davidson diagonalization with overlap
     ethr =  1.86E-04,  avg # of iterations =  2.1

     total cpu time spent up to now is       16.7 secs

     total energy              =    -485.71377365 Ry
     estimated scf accuracy    <       0.02752780 Ry

     iteration #  3     ecut=    70.00 Ry     beta= 0.70
     Davidson diagonalization with overlap
     ethr =  7.65E-05,  avg # of iterations =  2.4

     total cpu time spent up to now is       19.7 secs

     total energy              =    -485.71975977 Ry
     estimated scf accuracy    <       0.00032375 Ry

     iteration #  4     ecut=    70.00 Ry     beta= 0.70
     Davidson diagonalization with overlap
     ethr =  8.99E-07,  avg # of iterations =  3.0

     total cpu time spent up to now is       23.0 secs

     total energy              =    -485.71981196 Ry
     estimated scf accuracy    <       0.00003978 Ry

     iteration #  5     ecut=    70.00 Ry     beta= 0.70
     Davidson diagonalization with overlap
     ethr =  1.11E-07,  avg # of iterations =  2.0

     total cpu time spent up to now is       25.9 secs

     End of self-consistent calculation

          k = 0.0000 0.0000 0.0000 (  4909 PWs)   bands (ev):

   -94.4077 -55.4513 -55.4513 -55.4513 -28.3023 -28.3023 -28.3023 -28.2956
   -28.2956  -3.2096  -0.4437  -0.4437  -0.4437  -0.2236  -0.2236   7.6358
     7.6358   7.6358   8.2229  12.2991  12.2991  12.2991

          k =-0.1429 0.1429-0.1429 (  4828 PWs)   bands (ev):

   -94.4077 -55.4514 -55.4513 -55.4513 -28.3023 -28.3022 -28.3022 -28.2956
   -28.2956  -3.1447  -0.4319  -0.4319  -0.3878  -0.2243  -0.2243   6.2492
     7.4834   7.4834   9.2286  12.2764  12.5437  12.5437

          k =-0.2857 0.2857-0.2857 (  4828 PWs)   bands (ev):

   -94.4077 -55.4514 -55.4514 -55.4514 -28.3023 -28.3021 -28.3021 -28.2955
   -28.2955  -2.9988  -0.4079  -0.4079  -0.2227  -0.2227  -0.2070   4.7194
     7.1858   7.1858   9.5213  12.8635  12.8635  13.2367

          k =-0.4286 0.4286-0.4286 (  4844 PWs)   bands (ev):

   -94.4077 -55.4514 -55.4514 -55.4514 -28.3023 -28.3021 -28.3021 -28.2955
   -28.2955  -2.8838  -0.3923  -0.3923  -0.2171  -0.2171   0.0309   3.7043
     6.9786   6.9786   9.4181  12.8791  12.8791  14.5065

          k = 0.0000 0.2857 0.0000 (  4837 PWs)   bands (ev):

   -94.4077 -55.4514 -55.4513 -55.4513 -28.3023 -28.3022 -28.3022 -28.2956
   -28.2955  -3.1232  -0.4201  -0.4201  -0.3858  -0.2295  -0.2187   6.2056
     7.2252   7.2252   9.6828  11.6016  12.9587  12.9587

          k =-0.1429 0.4286-0.1429 (  4829 PWs)   bands (ev):

   -94.4077 -55.4514 -55.4514 -55.4514 -28.3024 -28.3021 -28.3021 -28.2956
   -28.2955  -3.0049  -0.4016  -0.3943  -0.2748  -0.2146  -0.2066   5.0654
     6.8718   6.8921  10.2103  11.6816  13.3151  13.4748

          k =-0.2857 0.5714-0.2857 (  4820 PWs)   bands (ev):

   -94.4077 -55.4514 -55.4514 -55.4514 -28.3023 -28.3021 -28.3020 -28.2956
   -28.2955  -2.8810  -0.3856  -0.3764  -0.2388  -0.2123   0.0039   3.9881
     6.4554   6.7228  10.1944  12.3369  13.4937  13.7383

          k = 0.5714-0.2857 0.5714 (  4823 PWs)   bands (ev):

   -94.4077 -55.4514 -55.4514 -55.4514 -28.3023 -28.3021 -28.3020 -28.2955
   -28.2955  -2.8437  -0.3798  -0.3761  -0.2250  -0.2183   0.1099   3.6540
     6.2108   6.8062  10.1603  12.5218  13.2857  14.5646

          k = 0.4286-0.1429 0.4286 (  4831 PWs)   bands (ev):

   -94.4077 -55.4514 -55.4514 -55.4514 -28.3023 -28.3021 -28.3021 -28.2955
   -28.2955  -2.9187  -0.3928  -0.3859  -0.2286  -0.2245  -0.0722   4.2994
     6.2850   7.0971  10.2047  12.7265  13.0715  13.4070

          k = 0.2857-0.0000 0.2857 (  4818 PWs)   bands (ev):

   -94.4077 -55.4514 -55.4514 -55.4513 -28.3023 -28.3022 -28.3022 -28.2956
   -28.2955  -3.0529  -0.4186  -0.4065  -0.2989  -0.2301  -0.2149   5.4057
     6.7793   7.4147   9.9249  12.1951  12.6969  13.1276

          k = 0.0000 0.5714 0.0000 (  4837 PWs)   bands (ev):

   -94.4077 -55.4514 -55.4514 -55.4514 -28.3025 -28.3020 -28.3020 -28.2957
   -28.2954  -2.9313  -0.3639  -0.3639  -0.2905  -0.2076  -0.1399   4.7527
     6.5070   6.5070  10.4867  10.9331  14.4356  14.4356

          k =-0.1429 0.7143-0.1429 (  4829 PWs)   bands (ev):

   -94.4077 -55.4514 -55.4514 -55.4514 -28.3025 -28.3020 -28.3019 -28.2956
   -28.2954  -2.8360  -0.3513  -0.3414  -0.2760  -0.2050   0.0424   4.0834
     6.0082   6.3044  10.5489  11.2543  14.0428  14.8152

          k = 0.7143-0.1429 0.7143 (  4837 PWs)   bands (ev):

   -94.4077 -55.4514 -55.4514 -55.4514 -28.3024 -28.3020 -28.3019 -28.2956
   -28.2954  -2.7911  -0.3562  -0.3406  -0.2518  -0.2132   0.1949   3.7485
     5.4759   6.3911  10.6143  12.3323  14.1798  14.4746

          k = 0.5714 0.0000 0.5714 (  4840 PWs)   bands (ev):

   -94.4077 -55.4514 -55.4514 -55.4514 -28.3022 -28.3022 -28.3020 -28.2955
   -28.2955  -2.8270  -0.3670  -0.3619  -0.2325  -0.2258   0.1181   3.9443
     5.4690   6.7234  10.7250  12.7816  13.7187  13.8342

          k = 0.0000 0.8571 0.0000 (  4812 PWs)   bands (ev):

   -94.4077 -55.4514 -55.4514 -55.4514 -28.3026 -28.3019 -28.3019 -28.2957
   -28.2953  -2.7836  -0.3152  -0.3152  -0.3015  -0.1987   0.1380   3.7722
     6.0404   6.0404  10.2955  10.5174  15.7758  16.0904

          k = 0.8571 0.0000 0.8571 (  4850 PWs)   bands (ev):

   -94.4077 -55.4514 -55.4514 -55.4514 -28.3026 -28.3019 -28.3019 -28.2957
   -28.2953  -2.7642  -0.3296  -0.3147  -0.2816  -0.2026   0.2167   3.6622
     5.6590   6.0749  10.4242  11.0610  15.3945  15.7986

          k =-0.2857 0.5714 0.0000 (  4817 PWs)   bands (ev):

   -94.4077 -55.4514 -55.4514 -55.4514 -28.3024 -28.3021 -28.3020 -28.2956
   -28.2954  -2.8985  -0.3780  -0.3690  -0.2565  -0.2129  -0.0590   4.4112
     6.0706   6.7287  10.7800  11.7240  13.0764  14.2727

          k = 0.5714-0.2857 0.8571 (  4822 PWs)   bands (ev):

   -94.4077 -55.4514 -55.4514 -55.4514 -28.3023 -28.3021 -28.3020 -28.2956
   -28.2954  -2.8158  -0.3645  -0.3546  -0.2429  -0.2168   0.1410   3.8322
     5.6742   6.4419  10.9419  12.2778  13.2171  14.7447

          k = 0.7143-0.1429 1.0000 (  4843 PWs)   bands (ev):

   -94.4077 -55.4514 -55.4514 -55.4514 -28.3025 -28.3020 -28.3019 -28.2956
   -28.2954  -2.7803  -0.3362  -0.3334  -0.2680  -0.2082   0.1900   3.7824
     5.7093   5.9603  11.0316  11.2978  13.9347  15.4681

          k = 0.5714 0.0000 0.8571 (  4824 PWs)   bands (ev):

   -94.4077 -55.4514 -55.4514 -55.4514 -28.3023 -28.3021 -28.3019 -28.2956
   -28.2954  -2.7719  -0.3471  -0.3348  -0.2489  -0.2193   0.2408   3.7523
     5.3922   6.0228  11.2408  12.3710  13.4832  14.3720

     the Fermi energy is     7.9973 ev

!    total energy              =    -485.71981744 Ry
     estimated scf accuracy    <       0.00000189 Ry

     The total energy is the sum of the following terms:
     one-electron contribution =    -318.63081555 Ry
     hartree contribution      =     160.80970447 Ry
     xc contribution           =     -46.22602303 Ry
     ewald contribution        =    -281.67268332 Ry

     convergence has been achieved in   5 iterations

     Forces acting on atoms (cartesian axes, Ry/au):

     atom    1 type  1   force =    -0.00000000    0.00000000    0.00000000
     atom    2 type  2   force =     0.00000000   -0.00000000    0.00000000

     Total force =     0.000000     Total SCF correction =     0.000000


     Computing stress (Cartesian axis) and pressure

          total   stress  (Ry/bohr**3)                   (kbar)     P=       -0.10
  -0.00000065  -0.00000000  -0.00000000           -0.10       -0.00       -0.00
  -0.00000000  -0.00000065   0.00000000           -0.00       -0.10        0.00
  -0.00000000   0.00000000  -0.00000065           -0.00        0.00       -0.10


     Writing all to output data dir ./tmp/CdTe.save/ :
     XML data file, charge density, pseudopotentials, collected wavefunctions

     init_run     :      1.00s CPU      1.10s WALL (       1 calls)
     electrons    :     24.38s CPU     24.83s WALL (       1 calls)
     forces       :      0.31s CPU      0.31s WALL (       1 calls)
     stress       :      1.15s CPU      1.17s WALL (       1 calls)

     Called by init_run:
     wfcinit      :      0.90s CPU      0.97s WALL (       1 calls)
     potinit      :      0.05s CPU      0.06s WALL (       1 calls)
     hinit0       :      0.04s CPU      0.05s WALL (       1 calls)

     Called by electrons:
     c_bands      :     21.88s CPU     22.27s WALL (       6 calls)
     sum_band     :      2.33s CPU      2.38s WALL (       6 calls)
     v_of_rho     :      0.18s CPU      0.20s WALL (       6 calls)
     mix_rho      :      0.02s CPU      0.02s WALL (       6 calls)

     Called by c_bands:
     init_us_2    :      0.31s CPU      0.34s WALL (     300 calls)
     cegterg      :     21.42s CPU     21.79s WALL (     120 calls)

     Called by *egterg:
     cdiaghg      :      0.19s CPU      0.20s WALL (     522 calls)
     h_psi        :     15.84s CPU     16.19s WALL (     562 calls)
     g_psi        :      0.09s CPU      0.09s WALL (     422 calls)

     Called by h_psi:
     h_psi:calbec :      1.47s CPU      1.48s WALL (     562 calls)
     vloc_psi     :     12.99s CPU     13.31s WALL (     562 calls)
                                        0.00s GPU  (     562 calls)
     add_vuspsi   :      1.31s CPU      1.32s WALL (     562 calls)

     General routines
     calbec       :      2.53s CPU      2.55s WALL (     902 calls)
     fft          :      0.09s CPU      0.10s WALL (      68 calls)
     ffts         :      0.01s CPU      0.01s WALL (       6 calls)
     fftw         :     13.35s CPU     13.69s WALL (   21368 calls)


     PWSCF        :     26.87s CPU     27.47s WALL


   This run was terminated on:   7:15:55  12Jan2026            

=------------------------------------------------------------------------------=
   JOB DONE.
=------------------------------------------------------------------------------=
