
     Program PWSCF v.7.5 starts on 11Jan2026 at 19:27:18 

     This program is part of the open-source Quantum ESPRESSO suite
     for quantum simulation of materials; please cite
         "P. Giannozzi et al., J. Phys.:Condens. Matter 21 395502 (2009);
         "P. Giannozzi et al., J. Phys.:Condens. Matter 29 465901 (2017);
         "P. Giannozzi et al., J. Chem. Phys. 152 154105 (2020);
          URL http://www.quantum-espresso.org", 
     in publications or presentations arising from this work. More details at
     http://www.quantum-espresso.org/quote

     Serial version
     669 MiB available memory on the printing compute node when the environment starts

     Waiting for input...
     Reading input from standard input

     Current dimensions of program PWSCF are:
     Max number of different atomic species (ntypx) = 10
     Max number of k-points (npk) =  40000
     Max angular momentum in pseudopotentials (lmaxx) =  4
     Message from routine iosys:
     BEWARE:  force calculation with tetrahedra (not recommanded)
     Message from routine iosys:
     BEWARE: stress calculation with tetrahedra (not recommanded)
     [opt_tetra]  Optimized tetrahedron method is used.


     G-vector sticks info
     --------------------
     sticks:   dense  smooth     PW     G-vecs:    dense   smooth      PW
     Sum        1639    1639    475                43599    43599    6735

     Using Slab Decomposition



     bravais-lattice index     =            2
     lattice parameter (alat)  =      13.0000  a.u.
     unit-cell volume          =     549.2500 (a.u.)^3
     number of atoms/cell      =            2
     number of atomic types    =            2
     number of electrons       =        36.00
     number of Kohn-Sham states=           22
     kinetic-energy cutoff     =      70.0000  Ry
     charge density cutoff     =     280.0000  Ry
     scf convergence threshold =      1.0E-05
     mixing beta               =       0.7000
     number of iterations used =            8  plain     mixing
     Exchange-correlation= PBE
                           (   1   4   3   4   0   0   0)

     celldm(1)=  13.000000  celldm(2)=   0.000000  celldm(3)=   0.000000
     celldm(4)=   0.000000  celldm(5)=   0.000000  celldm(6)=   0.000000

     crystal axes: (cart. coord. in units of alat)
               a(1) = (  -0.500000   0.000000   0.500000 )  
               a(2) = (   0.000000   0.500000   0.500000 )  
               a(3) = (  -0.500000   0.500000   0.000000 )  

     reciprocal axes: (cart. coord. in units 2 pi/alat)
               b(1) = ( -1.000000 -1.000000  1.000000 )  
               b(2) = (  1.000000  1.000000  1.000000 )  
               b(3) = ( -1.000000  1.000000 -1.000000 )  


     PseudoPot. # 1 for Cd read from file:
     ./PSEUDO/Cd_ONCV_PBE-1.2.upf
     MD5 check sum: 810a600e5a5ac944c8c8f48f0d721646
     Pseudo is Norm-conserving, Zval = 20.0
     Generated using ONCVPSP code by D. R. Hamann
     Using radial grid of  602 points,  6 beta functions with: 
                l(1) =   0
                l(2) =   0
                l(3) =   1
                l(4) =   1
                l(5) =   2
                l(6) =   2

     PseudoPot. # 2 for Te read from file:
     ./PSEUDO/Te_ONCV_PBE-1.2.upf
     MD5 check sum: dd4de4dac1e38587f63aaf3700bb29d3
     Pseudo is Norm-conserving, Zval = 16.0
     Generated using ONCVPSP code by D. R. Hamann
     Using radial grid of  602 points,  6 beta functions with: 
                l(1) =   0
                l(2) =   0
                l(3) =   1
                l(4) =   1
                l(5) =   2
                l(6) =   2

     atomic species   valence    mass     pseudopotential
     Cd               20.00   112.40000     Cd( 1.00)
     Te               16.00   127.60000     Te( 1.00)

     24 Sym. Ops. (no inversion) found



   Cartesian axes

     site n.     atom                  positions (alat units)
         1        Cd     tau(   1) = (   0.0000000   0.0000000   0.0000000  )
         2        Te     tau(   2) = (  -0.2500000   0.2500000   0.2500000  )

     number of k points=    20 (tetrahedron method)
                       cart. coord. in units 2pi/alat
        k(    1) = (   0.0000000   0.0000000   0.0000000), wk =   0.0058309
        k(    2) = (  -0.1428571   0.1428571  -0.1428571), wk =   0.0466472
        k(    3) = (  -0.2857143   0.2857143  -0.2857143), wk =   0.0466472
        k(    4) = (  -0.4285714   0.4285714  -0.4285714), wk =   0.0466472
        k(    5) = (   0.0000000   0.2857143   0.0000000), wk =   0.0349854
        k(    6) = (  -0.1428571   0.4285714  -0.1428571), wk =   0.1399417
        k(    7) = (  -0.2857143   0.5714286  -0.2857143), wk =   0.1399417
        k(    8) = (   0.5714286  -0.2857143   0.5714286), wk =   0.1399417
        k(    9) = (   0.4285714  -0.1428571   0.4285714), wk =   0.1399417
        k(   10) = (   0.2857143  -0.0000000   0.2857143), wk =   0.0699708
        k(   11) = (   0.0000000   0.5714286   0.0000000), wk =   0.0349854
        k(   12) = (  -0.1428571   0.7142857  -0.1428571), wk =   0.1399417
        k(   13) = (   0.7142857  -0.1428571   0.7142857), wk =   0.1399417
        k(   14) = (   0.5714286   0.0000000   0.5714286), wk =   0.0699708
        k(   15) = (   0.0000000   0.8571429   0.0000000), wk =   0.0349854
        k(   16) = (   0.8571429   0.0000000   0.8571429), wk =   0.0699708
        k(   17) = (  -0.2857143   0.5714286   0.0000000), wk =   0.1399417
        k(   18) = (   0.5714286  -0.2857143   0.8571429), wk =   0.2798834
        k(   19) = (   0.7142857  -0.1428571   1.0000000), wk =   0.1399417
        k(   20) = (   0.5714286   0.0000000   0.8571429), wk =   0.1399417

     Dense  grid:    43599 G-vectors     FFT dimensions: (  50,  50,  50)

     Estimated max dynamical RAM per process >      79.40 MB

     Initial potential from superposition of free atoms

     starting charge      35.9267, renormalised to      36.0000
     Starting wfcs are random

     total cpu time spent up to now is        2.3 secs

     Self-consistent Calculation

     iteration #  1     ecut=    70.00 Ry     beta= 0.70
     Davidson diagonalization with overlap
     ethr =  1.00E-02,  avg # of iterations =  9.8

     Threshold (ethr) on eigenvalues was too large:
     Diagonalizing with lowered threshold

     Davidson diagonalization with overlap
     ethr =  2.24E-04,  avg # of iterations =  2.1

     total cpu time spent up to now is       17.1 secs

     total energy              =    -485.68252838 Ry
     estimated scf accuracy    <       0.07406917 Ry

     iteration #  2     ecut=    70.00 Ry     beta= 0.70
     Davidson diagonalization with overlap
     ethr =  2.06E-04,  avg # of iterations =  2.1

     total cpu time spent up to now is       21.0 secs

     total energy              =    -485.70491739 Ry
     estimated scf accuracy    <       0.03686133 Ry

     iteration #  3     ecut=    70.00 Ry     beta= 0.70
     Davidson diagonalization with overlap
     ethr =  1.02E-04,  avg # of iterations =  2.0

     total cpu time spent up to now is       24.7 secs

     total energy              =    -485.71301805 Ry
     estimated scf accuracy    <       0.00042689 Ry

     iteration #  4     ecut=    70.00 Ry     beta= 0.70
     Davidson diagonalization with overlap
     ethr =  1.19E-06,  avg # of iterations =  3.4

     total cpu time spent up to now is       28.9 secs

     total energy              =    -485.71309317 Ry
     estimated scf accuracy    <       0.00005518 Ry

     iteration #  5     ecut=    70.00 Ry     beta= 0.70
     Davidson diagonalization with overlap
     ethr =  1.53E-07,  avg # of iterations =  2.0

     total cpu time spent up to now is       32.5 secs

     End of self-consistent calculation

          k = 0.0000 0.0000 0.0000 (  5521 PWs)   bands (ev):

   -95.8173 -56.8496 -56.8496 -56.8496 -29.6610 -29.6610 -29.6610 -29.6581
   -29.6581  -4.2376  -1.7414  -1.7414  -1.7414  -1.5906  -1.5906   6.0774
     6.0774   6.0774   6.3312  10.7658  10.7658  10.7658

          k =-0.1429 0.1429-0.1429 (  5441 PWs)   bands (ev):

   -95.8173 -56.8496 -56.8496 -56.8496 -29.6610 -29.6609 -29.6609 -29.6581
   -29.6581  -4.1896  -1.7333  -1.7333  -1.6948  -1.5910  -1.5910   4.7740
     5.9588   5.9588   7.3704  10.6818  10.9734  10.9734

          k =-0.2857 0.2857-0.2857 (  5411 PWs)   bands (ev):

   -95.8173 -56.8496 -56.8496 -56.8496 -29.6610 -29.6609 -29.6609 -29.6581
   -29.6581  -4.0827  -1.7169  -1.7169  -1.5897  -1.5897  -1.5560   3.4863
     5.7226   5.7226   7.7582  11.2664  11.2664  11.4020

          k =-0.4286 0.4286-0.4286 (  5438 PWs)   bands (ev):

   -95.8173 -56.8496 -56.8496 -56.8496 -29.6610 -29.6609 -29.6609 -29.6581
   -29.6581  -3.9985  -1.7061  -1.7061  -1.5859  -1.5859  -1.3941   2.6711
     5.5556   5.5556   7.7138  11.3081  11.3081  12.5981

          k = 0.0000 0.2857 0.0000 (  5449 PWs)   bands (ev):

   -95.8173 -56.8496 -56.8496 -56.8496 -29.6610 -29.6609 -29.6609 -29.6581
   -29.6581  -4.1738  -1.7252  -1.7252  -1.6909  -1.5942  -1.5872   4.6990
     5.7587   5.7587   7.7587  10.1328  11.3163  11.3163

          k =-0.1429 0.4286-0.1429 (  5447 PWs)   bands (ev):

   -95.8173 -56.8496 -56.8496 -56.8496 -29.6610 -29.6609 -29.6609 -29.6581
   -29.6580  -4.0870  -1.7122  -1.7076  -1.6140  -1.5842  -1.5662   3.7444
     5.4676   5.4920   8.3136  10.1517  11.6652  11.7722

          k =-0.2857 0.5714-0.2857 (  5437 PWs)   bands (ev):

   -95.8173 -56.8496 -56.8496 -56.8496 -29.6610 -29.6609 -29.6608 -29.6581
   -29.6580  -3.9964  -1.7012  -1.6954  -1.5992  -1.5826  -1.4089   2.8823
     5.1191   5.3531   8.3917  10.7682  11.8288  11.9893

          k = 0.5714-0.2857 0.5714 (  5430 PWs)   bands (ev):

   -95.8173 -56.8496 -56.8496 -56.8496 -29.6610 -29.6609 -29.6608 -29.6581
   -29.6580  -3.9690  -1.6972  -1.6953  -1.5907  -1.5865  -1.3408   2.6270
     4.9169   5.4184   8.3719  10.9994  11.6615  12.5868

          k = 0.4286-0.1429 0.4286 (  5419 PWs)   bands (ev):

   -95.8173 -56.8496 -56.8496 -56.8496 -29.6610 -29.6609 -29.6609 -29.6581
   -29.6581  -4.0239  -1.7068  -1.7016  -1.5934  -1.5896  -1.4605   3.1284
     4.9905   5.6506   8.3684  11.1281  11.4554  11.6358

          k = 0.2857-0.0000 0.2857 (  5428 PWs)   bands (ev):

   -95.8173 -56.8496 -56.8496 -56.8496 -29.6610 -29.6609 -29.6609 -29.6581
   -29.6581  -4.1222  -1.7243  -1.7158  -1.6245  -1.5946  -1.5832   4.0353
     5.4059   5.9023   8.0271  10.5910  11.1140  11.4782

          k = 0.0000 0.5714 0.0000 (  5433 PWs)   bands (ev):

   -95.8173 -56.8496 -56.8496 -56.8496 -29.6611 -29.6608 -29.6608 -29.6581
   -29.6580  -4.0331  -1.6871  -1.6871  -1.6268  -1.5794  -1.5097   3.4521
     5.1815   5.1815   8.6890   9.4642  12.5905  12.5905

          k =-0.1429 0.7143-0.1429 (  5442 PWs)   bands (ev):

   -95.8173 -56.8496 -56.8496 -56.8496 -29.6611 -29.6608 -29.6608 -29.6581
   -29.6580  -3.9633  -1.6776  -1.6721  -1.6217  -1.5776  -1.3792   2.9188
     4.7723   5.0154   8.8515   9.7005  12.3081  12.9561

          k = 0.7143-0.1429 0.7143 (  5433 PWs)   bands (ev):

   -95.8173 -56.8496 -56.8496 -56.8496 -29.6610 -29.6608 -29.6608 -29.6581
   -29.6580  -3.9302  -1.6806  -1.6716  -1.6077  -1.5829  -1.2815   2.6739
     4.3291   5.0846   8.9291  10.6073  12.4218  12.6871

          k = 0.5714 0.0000 0.5714 (  5432 PWs)   bands (ev):

   -95.8173 -56.8496 -56.8496 -56.8496 -29.6609 -29.6609 -29.6608 -29.6581
   -29.6580  -3.9567  -1.6883  -1.6859  -1.5953  -1.5913  -1.3309   2.8285
     4.3259   5.3524   8.9261  11.1121  11.8911  12.1171

          k = 0.0000 0.8571 0.0000 (  5438 PWs)   bands (ev):

   -95.8173 -56.8496 -56.8496 -56.8496 -29.6611 -29.6607 -29.6607 -29.6581
   -29.6579  -3.9248  -1.6548  -1.6548  -1.6365  -1.5732  -1.3152   2.6663
     4.7998   4.7998   8.6904   9.1039  13.7341  14.0079

          k = 0.8571 0.0000 0.8571 (  5442 PWs)   bands (ev):

   -95.8173 -56.8496 -56.8496 -56.8496 -29.6611 -29.6607 -29.6607 -29.6581
   -29.6580  -3.9104  -1.6620  -1.6545  -1.6266  -1.5758  -1.2658   2.5885
     4.4907   4.8276   8.8407   9.5235  13.4488  13.8012

          k =-0.2857 0.5714 0.0000 (  5426 PWs)   bands (ev):

   -95.8173 -56.8496 -56.8496 -56.8496 -29.6610 -29.6608 -29.6608 -29.6581
   -29.6580  -4.0091  -1.6964  -1.6901  -1.6094  -1.5828  -1.4503   3.1927
     4.8254   5.3572   8.8493  10.1934  11.5246  12.4429

          k = 0.5714-0.2857 0.8571 (  5434 PWs)   bands (ev):

   -95.8173 -56.8496 -56.8496 -56.8496 -29.6610 -29.6609 -29.6608 -29.6581
   -29.6580  -3.9484  -1.6873  -1.6800  -1.6021  -1.5853  -1.3164   2.7451
     4.4854   5.1293   9.0579  10.7447  11.5210  12.8963

          k = 0.7143-0.1429 1.0000 (  5427 PWs)   bands (ev):

   -95.8173 -56.8496 -56.8496 -56.8496 -29.6611 -29.6608 -29.6607 -29.6581
   -29.6580  -3.9222  -1.6692  -1.6643  -1.6181  -1.5794  -1.2826   2.6845
     4.5262   4.7422   9.2167   9.8222  12.2022  13.5450

          k = 0.5714 0.0000 0.8571 (  5426 PWs)   bands (ev):

   -95.8173 -56.8496 -56.8496 -56.8496 -29.6610 -29.6609 -29.6607 -29.6581
   -29.6580  -3.9160  -1.6759  -1.6661  -1.6065  -1.5863  -1.2512   2.6690
     4.2671   4.7918   9.4109  10.7022  11.7307  12.7476

     the Fermi energy is     6.2325 ev

!    total energy              =    -485.71310046 Ry
     estimated scf accuracy    <       0.00000224 Ry

     The total energy is the sum of the following terms:
     one-electron contribution =    -336.79182357 Ry
     hartree contribution      =     168.05883111 Ry
     xc contribution           =     -46.14098943 Ry
     ewald contribution        =    -270.83911857 Ry

     convergence has been achieved in   5 iterations

     Forces acting on atoms (cartesian axes, Ry/au):

     atom    1 type  1   force =     0.00000000    0.00000000   -0.00000000
     atom    2 type  2   force =    -0.00000000   -0.00000000    0.00000000

     Total force =     0.000000     Total SCF correction =     0.000000


     Computing stress (Cartesian axis) and pressure

          total   stress  (Ry/bohr**3)                   (kbar)     P=      -32.45
  -0.00022058   0.00000000   0.00000000          -32.45        0.00        0.00
   0.00000000  -0.00022058  -0.00000000            0.00      -32.45       -0.00
   0.00000000  -0.00000000  -0.00022058            0.00       -0.00      -32.45


     Writing all to output data dir ./tmp/CdTe.save/ :
     XML data file, charge density, pseudopotentials, collected wavefunctions

     init_run     :      2.06s CPU      2.24s WALL (       1 calls)
     electrons    :     29.91s CPU     30.24s WALL (       1 calls)
     forces       :      0.34s CPU      0.34s WALL (       1 calls)
     stress       :      1.32s CPU      1.34s WALL (       1 calls)

     Called by init_run:
     wfcinit      :      1.84s CPU      1.96s WALL (       1 calls)
     potinit      :      0.11s CPU      0.14s WALL (       1 calls)
     hinit0       :      0.08s CPU      0.09s WALL (       1 calls)

     Called by electrons:
     c_bands      :     26.78s CPU     27.05s WALL (       6 calls)
     sum_band     :      2.95s CPU      2.99s WALL (       6 calls)
     v_of_rho     :      0.22s CPU      0.25s WALL (       6 calls)
     mix_rho      :      0.01s CPU      0.02s WALL (       6 calls)

     Called by c_bands:
     init_us_2    :      0.37s CPU      0.40s WALL (     300 calls)
     cegterg      :     26.26s CPU     26.53s WALL (     120 calls)

     Called by *egterg:
     cdiaghg      :      0.20s CPU      0.20s WALL (     531 calls)
     h_psi        :     20.55s CPU     20.84s WALL (     571 calls)
     g_psi        :      0.10s CPU      0.10s WALL (     431 calls)

     Called by h_psi:
     h_psi:calbec :      1.79s CPU      1.80s WALL (     571 calls)
     vloc_psi     :     17.14s CPU     17.40s WALL (     571 calls)
                                        0.00s GPU  (     571 calls)
     add_vuspsi   :      1.53s CPU      1.54s WALL (     571 calls)

     General routines
     calbec       :      3.00s CPU      3.02s WALL (     911 calls)
     fft          :      0.10s CPU      0.10s WALL (      68 calls)
     ffts         :      0.01s CPU      0.01s WALL (       6 calls)
     fftw         :     17.55s CPU     17.81s WALL (   21512 calls)


     PWSCF        :     33.67s CPU     34.23s WALL


   This run was terminated on:  19:27:52  11Jan2026            

=------------------------------------------------------------------------------=
   JOB DONE.
=------------------------------------------------------------------------------=
