
     Program PWSCF v.7.5 starts on 11Jan2026 at 19:24: 4 

     This program is part of the open-source Quantum ESPRESSO suite
     for quantum simulation of materials; please cite
         "P. Giannozzi et al., J. Phys.:Condens. Matter 21 395502 (2009);
         "P. Giannozzi et al., J. Phys.:Condens. Matter 29 465901 (2017);
         "P. Giannozzi et al., J. Chem. Phys. 152 154105 (2020);
          URL http://www.quantum-espresso.org", 
     in publications or presentations arising from this work. More details at
     http://www.quantum-espresso.org/quote

     Serial version
     700 MiB available memory on the printing compute node when the environment starts

     Waiting for input...
     Reading input from standard input

     Current dimensions of program PWSCF are:
     Max number of different atomic species (ntypx) = 10
     Max number of k-points (npk) =  40000
     Max angular momentum in pseudopotentials (lmaxx) =  4
     Message from routine iosys:
     BEWARE:  force calculation with tetrahedra (not recommanded)
     Message from routine iosys:
     BEWARE: stress calculation with tetrahedra (not recommanded)
     [opt_tetra]  Optimized tetrahedron method is used.


     G-vector sticks info
     --------------------
     sticks:   dense  smooth     PW     G-vecs:    dense   smooth      PW
     Sum        2173    2173    595                66923    66923    9841

     Using Slab Decomposition



     bravais-lattice index     =            2
     lattice parameter (alat)  =      15.0000  a.u.
     unit-cell volume          =     843.7500 (a.u.)^3
     number of atoms/cell      =            2
     number of atomic types    =            2
     number of electrons       =        36.00
     number of Kohn-Sham states=           22
     kinetic-energy cutoff     =      70.0000  Ry
     charge density cutoff     =     280.0000  Ry
     scf convergence threshold =      1.0E-05
     mixing beta               =       0.7000
     number of iterations used =            8  plain     mixing
     Exchange-correlation= PBE
                           (   1   4   3   4   0   0   0)

     celldm(1)=  15.000000  celldm(2)=   0.000000  celldm(3)=   0.000000
     celldm(4)=   0.000000  celldm(5)=   0.000000  celldm(6)=   0.000000

     crystal axes: (cart. coord. in units of alat)
               a(1) = (  -0.500000   0.000000   0.500000 )  
               a(2) = (   0.000000   0.500000   0.500000 )  
               a(3) = (  -0.500000   0.500000   0.000000 )  

     reciprocal axes: (cart. coord. in units 2 pi/alat)
               b(1) = ( -1.000000 -1.000000  1.000000 )  
               b(2) = (  1.000000  1.000000  1.000000 )  
               b(3) = ( -1.000000  1.000000 -1.000000 )  


     PseudoPot. # 1 for Cd read from file:
     ./PSEUDO/Cd_ONCV_PBE-1.2.upf
     MD5 check sum: 810a600e5a5ac944c8c8f48f0d721646
     Pseudo is Norm-conserving, Zval = 20.0
     Generated using ONCVPSP code by D. R. Hamann
     Using radial grid of  602 points,  6 beta functions with: 
                l(1) =   0
                l(2) =   0
                l(3) =   1
                l(4) =   1
                l(5) =   2
                l(6) =   2

     PseudoPot. # 2 for Te read from file:
     ./PSEUDO/Te_ONCV_PBE-1.2.upf
     MD5 check sum: dd4de4dac1e38587f63aaf3700bb29d3
     Pseudo is Norm-conserving, Zval = 16.0
     Generated using ONCVPSP code by D. R. Hamann
     Using radial grid of  602 points,  6 beta functions with: 
                l(1) =   0
                l(2) =   0
                l(3) =   1
                l(4) =   1
                l(5) =   2
                l(6) =   2

     atomic species   valence    mass     pseudopotential
     Cd               20.00   112.40000     Cd( 1.00)
     Te               16.00   127.60000     Te( 1.00)

     24 Sym. Ops. (no inversion) found



   Cartesian axes

     site n.     atom                  positions (alat units)
         1        Cd     tau(   1) = (   0.0000000   0.0000000   0.0000000  )
         2        Te     tau(   2) = (  -0.2500000   0.2500000   0.2500000  )

     number of k points=    20 (tetrahedron method)
                       cart. coord. in units 2pi/alat
        k(    1) = (   0.0000000   0.0000000   0.0000000), wk =   0.0058309
        k(    2) = (  -0.1428571   0.1428571  -0.1428571), wk =   0.0466472
        k(    3) = (  -0.2857143   0.2857143  -0.2857143), wk =   0.0466472
        k(    4) = (  -0.4285714   0.4285714  -0.4285714), wk =   0.0466472
        k(    5) = (   0.0000000   0.2857143   0.0000000), wk =   0.0349854
        k(    6) = (  -0.1428571   0.4285714  -0.1428571), wk =   0.1399417
        k(    7) = (  -0.2857143   0.5714286  -0.2857143), wk =   0.1399417
        k(    8) = (   0.5714286  -0.2857143   0.5714286), wk =   0.1399417
        k(    9) = (   0.4285714  -0.1428571   0.4285714), wk =   0.1399417
        k(   10) = (   0.2857143  -0.0000000   0.2857143), wk =   0.0699708
        k(   11) = (   0.0000000   0.5714286   0.0000000), wk =   0.0349854
        k(   12) = (  -0.1428571   0.7142857  -0.1428571), wk =   0.1399417
        k(   13) = (   0.7142857  -0.1428571   0.7142857), wk =   0.1399417
        k(   14) = (   0.5714286   0.0000000   0.5714286), wk =   0.0699708
        k(   15) = (   0.0000000   0.8571429   0.0000000), wk =   0.0349854
        k(   16) = (   0.8571429   0.0000000   0.8571429), wk =   0.0699708
        k(   17) = (  -0.2857143   0.5714286   0.0000000), wk =   0.1399417
        k(   18) = (   0.5714286  -0.2857143   0.8571429), wk =   0.2798834
        k(   19) = (   0.7142857  -0.1428571   1.0000000), wk =   0.1399417
        k(   20) = (   0.5714286   0.0000000   0.8571429), wk =   0.1399417

     Dense  grid:    66923 G-vectors     FFT dimensions: (  60,  60,  60)

     Estimated max dynamical RAM per process >     122.11 MB

     Initial potential from superposition of free atoms

     starting charge      35.9267, renormalised to      36.0000

     negative rho (up, down):  1.691E-05 0.000E+00
     Starting wfcs are random

     total cpu time spent up to now is        2.8 secs

     Self-consistent Calculation

     iteration #  1     ecut=    70.00 Ry     beta= 0.70
     Davidson diagonalization with overlap
     ethr =  1.00E-02,  avg # of iterations = 10.0

     Threshold (ethr) on eigenvalues was too large:
     Diagonalizing with lowered threshold

     Davidson diagonalization with overlap
     ethr =  3.86E-04,  avg # of iterations =  2.4

     total cpu time spent up to now is       25.5 secs

     total energy              =    -485.55228862 Ry
     estimated scf accuracy    <       0.13147697 Ry

     iteration #  2     ecut=    70.00 Ry     beta= 0.70
     Davidson diagonalization with overlap
     ethr =  3.65E-04,  avg # of iterations =  3.0

     total cpu time spent up to now is       31.6 secs

     total energy              =    -485.58407858 Ry
     estimated scf accuracy    <       0.15927311 Ry

     iteration #  3     ecut=    70.00 Ry     beta= 0.70
     Davidson diagonalization with overlap
     ethr =  3.65E-04,  avg # of iterations =  2.0

     total cpu time spent up to now is       36.7 secs

     total energy              =    -485.61538557 Ry
     estimated scf accuracy    <       0.00086548 Ry

     iteration #  4     ecut=    70.00 Ry     beta= 0.70
     Davidson diagonalization with overlap
     ethr =  2.40E-06,  avg # of iterations =  3.8

     total cpu time spent up to now is       43.3 secs

     total energy              =    -485.61576231 Ry
     estimated scf accuracy    <       0.00015222 Ry

     iteration #  5     ecut=    70.00 Ry     beta= 0.70
     Davidson diagonalization with overlap
     ethr =  4.23E-07,  avg # of iterations =  2.0

     total cpu time spent up to now is       48.9 secs

     End of self-consistent calculation

          k = 0.0000 0.0000 0.0000 (  8363 PWs)   bands (ev):

   -99.9145 -60.9343 -60.9343 -60.9343 -33.5525 -33.5525 -33.5501 -33.5501
   -33.5501  -7.3748  -5.6539  -5.6539  -5.6539  -5.6253  -5.6253   1.2877
     1.9082   1.9082   1.9082   6.4348   6.4348   6.4348

          k =-0.1429 0.1429-0.1429 (  8348 PWs)   bands (ev):

   -99.9145 -60.9343 -60.9343 -60.9343 -33.5525 -33.5525 -33.5501 -33.5501
   -33.5501  -7.3628  -5.6523  -5.6523  -5.6387  -5.6253  -5.6253   0.7552
     1.8622   1.8622   2.3935   6.2601   6.5455   6.5455

          k =-0.2857 0.2857-0.2857 (  8327 PWs)   bands (ev):

   -99.9145 -60.9343 -60.9343 -60.9343 -33.5525 -33.5525 -33.5501 -33.5501
   -33.5501  -7.3361  -5.6492  -5.6492  -5.6248  -5.6248  -5.6013   0.1387
     1.7653   1.7653   2.8127   6.3980   6.7393   6.7393

          k =-0.4286 0.4286-0.4286 (  8342 PWs)   bands (ev):

   -99.9145 -60.9343 -60.9343 -60.9343 -33.5525 -33.5525 -33.5501 -33.5501
   -33.5501  -7.3151  -5.6471  -5.6471  -5.6240  -5.6240  -5.5679  -0.2201
     1.6933   1.6933   2.9312   6.8246   6.8247   6.9320

          k = 0.0000 0.2857 0.0000 (  8320 PWs)   bands (ev):

   -99.9145 -60.9343 -60.9343 -60.9343 -33.5525 -33.5525 -33.5501 -33.5501
   -33.5501  -7.3588  -5.6507  -5.6507  -5.6361  -5.6257  -5.6246   0.6725
     1.7865   1.7865   2.5981   5.9935   6.7079   6.7079

          k =-0.1429 0.4286-0.1429 (  8320 PWs)   bands (ev):

   -99.9145 -60.9343 -60.9343 -60.9343 -33.5525 -33.5525 -33.5501 -33.5501
   -33.5501  -7.3372  -5.6482  -5.6474  -5.6272  -5.6238  -5.6051   0.2143
     1.6581   1.6753   3.0265   5.9042   6.9220   6.9711

          k =-0.2857 0.5714-0.2857 (  8375 PWs)   bands (ev):

   -99.9145 -60.9343 -60.9343 -60.9343 -33.5525 -33.5525 -33.5501 -33.5501
   -33.5501  -7.3145  -5.6461  -5.6451  -5.6261  -5.6234  -5.5691  -0.1588
     1.4938   1.6121   3.2559   6.2751   7.0115   7.0782

          k = 0.5714-0.2857 0.5714 (  8365 PWs)   bands (ev):

   -99.9145 -60.9343 -60.9343 -60.9343 -33.5525 -33.5525 -33.5501 -33.5501
   -33.5501  -7.3076  -5.6454  -5.6451  -5.6247  -5.6240  -5.5567  -0.2599
     1.3999   1.6370   3.2934   6.6240   6.9816   7.0143

          k = 0.4286-0.1429 0.4286 (  8332 PWs)   bands (ev):

   -99.9145 -60.9343 -60.9343 -60.9343 -33.5525 -33.5525 -33.5501 -33.5501
   -33.5501  -7.3214  -5.6473  -5.6462  -5.6254  -5.6244  -5.5795  -0.0535
     1.4497   1.7338   3.1853   6.4138   6.8450   6.8561

          k = 0.2857-0.0000 0.2857 (  8336 PWs)   bands (ev):

   -99.9145 -60.9343 -60.9343 -60.9343 -33.5525 -33.5525 -33.5501 -33.5501
   -33.5501  -7.3460  -5.6506  -5.6489  -5.6258  -5.6252  -5.6160   0.3661
     1.6447   1.8366   2.8245   6.1355   6.6368   6.8105

          k = 0.0000 0.5714 0.0000 (  8324 PWs)   bands (ev):

   -99.9145 -60.9343 -60.9343 -60.9343 -33.5525 -33.5525 -33.5501 -33.5501
   -33.5501  -7.3236  -5.6435  -5.6435  -5.6293  -5.6229  -5.5891   0.0338
     1.5430   1.5430   3.3346   5.5072   7.3819   7.3819

          k =-0.1429 0.7143-0.1429 (  8335 PWs)   bands (ev):

   -99.9145 -60.9343 -60.9343 -60.9343 -33.5525 -33.5525 -33.5501 -33.5501
   -33.5501  -7.3060  -5.6416  -5.6408  -5.6293  -5.6224  -5.5608  -0.2011
     1.3600   1.4673   3.5861   5.5874   7.4432   7.6252

          k = 0.7143-0.1429 0.7143 (  8360 PWs)   bands (ev):

   -99.9145 -60.9343 -60.9343 -60.9343 -33.5525 -33.5525 -33.5501 -33.5501
   -33.5501  -7.2976  -5.6421  -5.6407  -5.6274  -5.6233  -5.5434  -0.2931
     1.1548   1.4956   3.7141   6.0576   7.2769   7.5304

          k = 0.5714 0.0000 0.5714 (  8350 PWs)   bands (ev):

   -99.9145 -60.9343 -60.9343 -60.9343 -33.5525 -33.5525 -33.5501 -33.5501
   -33.5501  -7.3043  -5.6437  -5.6434  -5.6254  -5.6248  -5.5528  -0.2202
     1.1563   1.6103   3.6002   6.5144   6.7903   7.2103

          k = 0.0000 0.8571 0.0000 (  8336 PWs)   bands (ev):

   -99.9145 -60.9343 -60.9343 -60.9343 -33.5525 -33.5525 -33.5501 -33.5501
   -33.5501  -7.2962  -5.6376  -5.6376  -5.6312  -5.6215  -5.5480  -0.3203
     1.3700   1.3700   3.6518   5.2879   8.0816   8.0816

          k = 0.8571 0.0000 0.8571 (  8348 PWs)   bands (ev):

   -99.9145 -60.9343 -60.9343 -60.9343 -33.5525 -33.5525 -33.5501 -33.5501
   -33.5501  -7.2925  -5.6386  -5.6376  -5.6302  -5.6219  -5.5395  -0.3494
     1.2361   1.3818   3.7600   5.4789   7.9091   8.0269

          k =-0.2857 0.5714 0.0000 (  8325 PWs)   bands (ev):

   -99.9145 -60.9343 -60.9343 -60.9343 -33.5525 -33.5525 -33.5501 -33.5501
   -33.5501  -7.3176  -5.6453  -5.6440  -5.6275  -5.6234  -5.5763  -0.0624
     1.3867   1.6146   3.4053   5.9085   6.9811   7.2963

          k = 0.5714-0.2857 0.8571 (  8362 PWs)   bands (ev):

   -99.9145 -60.9343 -60.9343 -60.9343 -33.5525 -33.5525 -33.5501 -33.5501
   -33.5501  -7.3022  -5.6438  -5.6419  -5.6265  -5.6237  -5.5501  -0.2515
     1.2182   1.5205   3.6383   6.3159   6.7595   7.5658

          k = 0.7143-0.1429 1.0000 (  8329 PWs)   bands (ev):

   -99.9145 -60.9343 -60.9343 -60.9343 -33.5525 -33.5525 -33.5501 -33.5501
   -33.5501  -7.2955  -5.6407  -5.6386  -5.6290  -5.6225  -5.5427  -0.3062
     1.2447   1.3573   3.8003   5.7093   7.2756   8.0472

          k = 0.5714 0.0000 0.8571 (  8370 PWs)   bands (ev):

   -99.9145 -60.9343 -60.9343 -60.9343 -33.5525 -33.5525 -33.5501 -33.5501
   -33.5501  -7.2939  -5.6420  -5.6390  -5.6274  -5.6237  -5.5375  -0.3094
     1.1310   1.3785   3.8846   6.2140   6.7798   7.9813

     the Fermi energy is     1.9156 ev

!    total energy              =    -485.61577950 Ry
     estimated scf accuracy    <       0.00000739 Ry

     The total energy is the sum of the following terms:
     one-electron contribution =    -398.71214976 Ry
     hartree contribution      =     193.75022612 Ry
     xc contribution           =     -45.92661976 Ry
     ewald contribution        =    -234.72723610 Ry

     convergence has been achieved in   5 iterations

     Forces acting on atoms (cartesian axes, Ry/au):

     atom    1 type  1   force =     0.00000000   -0.00000000    0.00000000
     atom    2 type  2   force =     0.00000000    0.00000000   -0.00000000

     Total force =     0.000000     Total SCF correction =     0.000000


     Computing stress (Cartesian axis) and pressure

          total   stress  (Ry/bohr**3)                   (kbar)     P=      -52.56
  -0.00035729   0.00000000   0.00000000          -52.56        0.00        0.00
   0.00000000  -0.00035729  -0.00000000            0.00      -52.56       -0.00
   0.00000000  -0.00000000  -0.00035729            0.00       -0.00      -52.56


     Writing all to output data dir ./tmp/CdTe.save/ :
     XML data file, charge density, pseudopotentials, collected wavefunctions

     init_run     :      2.65s CPU      2.77s WALL (       1 calls)
     electrons    :     45.37s CPU     46.09s WALL (       1 calls)
     forces       :      0.59s CPU      0.59s WALL (       1 calls)
     stress       :      2.20s CPU      2.23s WALL (       1 calls)

     Called by init_run:
     wfcinit      :      2.34s CPU      2.39s WALL (       1 calls)
     potinit      :      0.16s CPU      0.20s WALL (       1 calls)
     hinit0       :      0.08s CPU      0.10s WALL (       1 calls)

     Called by electrons:
     c_bands      :     40.64s CPU     41.26s WALL (       6 calls)
     sum_band     :      4.41s CPU      4.46s WALL (       6 calls)
     v_of_rho     :      0.39s CPU      0.46s WALL (       6 calls)
     mix_rho      :      0.03s CPU      0.03s WALL (       6 calls)

     Called by c_bands:
     init_us_2    :      0.63s CPU      0.68s WALL (     300 calls)
     cegterg      :     39.81s CPU     40.39s WALL (     120 calls)

     Called by *egterg:
     cdiaghg      :      0.21s CPU      0.22s WALL (     563 calls)
     h_psi        :     30.45s CPU     30.94s WALL (     603 calls)
     g_psi        :      0.15s CPU      0.15s WALL (     463 calls)

     Called by h_psi:
     h_psi:calbec :      2.76s CPU      2.77s WALL (     603 calls)
     vloc_psi     :     25.20s CPU     25.59s WALL (     603 calls)
                                        0.00s GPU  (     603 calls)
     add_vuspsi   :      2.37s CPU      2.38s WALL (     603 calls)

     General routines
     calbec       :      4.77s CPU      4.78s WALL (     943 calls)
     fft          :      0.17s CPU      0.17s WALL (      68 calls)
     ffts         :      0.01s CPU      0.01s WALL (       6 calls)
     fftw         :     25.31s CPU     25.63s WALL (   21672 calls)


     PWSCF        :     50.85s CPU     51.78s WALL


   This run was terminated on:  19:24:56  11Jan2026            

=------------------------------------------------------------------------------=
   JOB DONE.
=------------------------------------------------------------------------------=
