
     Program PWSCF v.7.5 starts on 11Jan2026 at 23:14: 7 

     This program is part of the open-source Quantum ESPRESSO suite
     for quantum simulation of materials; please cite
         "P. Giannozzi et al., J. Phys.:Condens. Matter 21 395502 (2009);
         "P. Giannozzi et al., J. Phys.:Condens. Matter 29 465901 (2017);
         "P. Giannozzi et al., J. Chem. Phys. 152 154105 (2020);
          URL http://www.quantum-espresso.org", 
     in publications or presentations arising from this work. More details at
     http://www.quantum-espresso.org/quote

     Serial version
     569 MiB available memory on the printing compute node when the environment starts

     Waiting for input...
     Reading input from standard input

     Current dimensions of program PWSCF are:
     Max number of different atomic species (ntypx) = 10
     Max number of k-points (npk) =  40000
     Max angular momentum in pseudopotentials (lmaxx) =  4


     G-vector sticks info
     --------------------
     sticks:   dense  smooth     PW     G-vecs:    dense   smooth      PW
     Sum        1507    1507    433                38781    38781    5961

     Using Slab Decomposition



     bravais-lattice index     =            2
     lattice parameter (alat)  =      12.5000  a.u.
     unit-cell volume          =     488.2812 (a.u.)^3
     number of atoms/cell      =            2
     number of atomic types    =            2
     number of electrons       =        36.00
     number of Kohn-Sham states=           22
     kinetic-energy cutoff     =      70.0000  Ry
     charge density cutoff     =     280.0000  Ry
     scf convergence threshold =      1.0E-05
     mixing beta               =       0.7000
     number of iterations used =            8  plain     mixing
     energy convergence thresh.=      1.0E-04
     force convergence thresh. =      1.0E-03
     Exchange-correlation= PBE
                           (   1   4   3   4   0   0   0)
     nstep                     =           50


     celldm(1)=  12.500000  celldm(2)=   0.000000  celldm(3)=   0.000000
     celldm(4)=   0.000000  celldm(5)=   0.000000  celldm(6)=   0.000000

     crystal axes: (cart. coord. in units of alat)
               a(1) = (  -0.500000   0.000000   0.500000 )  
               a(2) = (   0.000000   0.500000   0.500000 )  
               a(3) = (  -0.500000   0.500000   0.000000 )  

     reciprocal axes: (cart. coord. in units 2 pi/alat)
               b(1) = ( -1.000000 -1.000000  1.000000 )  
               b(2) = (  1.000000  1.000000  1.000000 )  
               b(3) = ( -1.000000  1.000000 -1.000000 )  


     PseudoPot. # 1 for Cd read from file:
     ./PSEUDO/Cd_ONCV_PBE-1.2.upf
     MD5 check sum: 810a600e5a5ac944c8c8f48f0d721646
     Pseudo is Norm-conserving, Zval = 20.0
     Generated using ONCVPSP code by D. R. Hamann
     Using radial grid of  602 points,  6 beta functions with: 
                l(1) =   0
                l(2) =   0
                l(3) =   1
                l(4) =   1
                l(5) =   2
                l(6) =   2

     PseudoPot. # 2 for Te read from file:
     ./PSEUDO/Te_ONCV_PBE-1.2.upf
     MD5 check sum: dd4de4dac1e38587f63aaf3700bb29d3
     Pseudo is Norm-conserving, Zval = 16.0
     Generated using ONCVPSP code by D. R. Hamann
     Using radial grid of  602 points,  6 beta functions with: 
                l(1) =   0
                l(2) =   0
                l(3) =   1
                l(4) =   1
                l(5) =   2
                l(6) =   2

     atomic species   valence    mass     pseudopotential
     Cd               20.00   112.40000     Cd( 1.00)
     Te               16.00   127.60000     Te( 1.00)

      6 Sym. Ops. (no inversion) found



   Cartesian axes

     site n.     atom                  positions (alat units)
         1        Cd     tau(   1) = (  -0.0500000   0.0500000   0.0500000  )
         2        Te     tau(   2) = (  -0.2500000   0.2500000   0.2500000  )

     number of k points=    44  Gaussian smearing, width (Ry)=  0.0400
                       cart. coord. in units 2pi/alat
        k(    1) = (   0.0000000   0.0000000   0.0000000), wk =   0.0058309
        k(    2) = (  -0.1428571   0.1428571  -0.1428571), wk =   0.0349854
        k(    3) = (  -0.2857143   0.2857143  -0.2857143), wk =   0.0349854
        k(    4) = (  -0.4285714   0.4285714  -0.4285714), wk =   0.0349854
        k(    5) = (   0.0000000   0.2857143   0.0000000), wk =   0.0349854
        k(    6) = (  -0.1428571   0.4285714  -0.1428571), wk =   0.0699708
        k(    7) = (  -0.2857143   0.5714286  -0.2857143), wk =   0.0699708
        k(    8) = (   0.5714286  -0.2857143   0.5714286), wk =   0.0699708
        k(    9) = (   0.4285714  -0.1428571   0.4285714), wk =   0.0699708
        k(   10) = (   0.2857143  -0.0000000   0.2857143), wk =   0.0349854
        k(   11) = (   0.0000000   0.5714286   0.0000000), wk =   0.0349854
        k(   12) = (  -0.1428571   0.7142857  -0.1428571), wk =   0.0699708
        k(   13) = (   0.7142857  -0.1428571   0.7142857), wk =   0.0699708
        k(   14) = (   0.5714286   0.0000000   0.5714286), wk =   0.0349854
        k(   15) = (   0.0000000   0.8571429   0.0000000), wk =   0.0349854
        k(   16) = (   0.8571429  -0.0000000   0.8571429), wk =   0.0349854
        k(   17) = (  -0.2857143   0.5714286   0.0000000), wk =   0.0699708
        k(   18) = (   0.5714286  -0.2857143   0.8571429), wk =   0.0699708
        k(   19) = (   0.7142857  -0.1428571   1.0000000), wk =   0.0699708
        k(   20) = (   0.5714286   0.0000000   0.8571429), wk =   0.0699708
        k(   21) = (  -0.1428571   0.1428571   0.1428571), wk =   0.0116618
        k(   22) = (  -0.2857143   0.2857143   0.2857143), wk =   0.0116618
        k(   23) = (  -0.4285714   0.4285714   0.4285714), wk =   0.0116618
        k(   24) = (  -0.4285714  -0.1428571  -0.1428571), wk =   0.0349854
        k(   25) = (  -0.1428571   0.4285714   0.1428571), wk =   0.0349854
        k(   26) = (  -0.5714286  -0.2857143  -0.2857143), wk =   0.0349854
        k(   27) = (  -0.2857143   0.5714286   0.2857143), wk =   0.0349854
        k(   28) = (   0.2857143   0.5714286   0.5714286), wk =   0.0349854
        k(   29) = (   0.5714286  -0.2857143  -0.5714286), wk =   0.0349854
        k(   30) = (   0.1428571   0.4285714   0.4285714), wk =   0.0349854
        k(   31) = (   0.4285714  -0.1428571  -0.4285714), wk =   0.0349854
        k(   32) = (   0.0000000   0.2857143   0.2857143), wk =   0.0349854
        k(   33) = (  -0.7142857  -0.1428571  -0.1428571), wk =   0.0349854
        k(   34) = (  -0.1428571   0.7142857   0.1428571), wk =   0.0349854
        k(   35) = (   0.1428571   0.7142857   0.7142857), wk =   0.0349854
        k(   36) = (   0.7142857  -0.1428571  -0.7142857), wk =   0.0349854
        k(   37) = (   0.0000000   0.5714286   0.5714286), wk =   0.0349854
        k(   38) = (   0.0000000   0.8571429   0.8571429), wk =   0.0349854
        k(   39) = (   0.5714286   0.2857143   0.0000000), wk =   0.0699708
        k(   40) = (  -0.2857143  -0.5714286   0.8571429), wk =   0.0699708
        k(   41) = (   0.2857143   0.5714286   0.8571429), wk =   0.0699708
        k(   42) = (   0.8571429  -0.2857143  -0.5714286), wk =   0.0699708
        k(   43) = (  -0.1428571  -0.7142857   1.0000000), wk =   0.0699708
        k(   44) = (  -0.0000000   0.5714286   0.8571429), wk =   0.0699708

     Dense  grid:    38781 G-vectors     FFT dimensions: (  48,  48,  48)

     Estimated max dynamical RAM per process >     109.77 MB

     Initial potential from superposition of free atoms

     starting charge      35.9267, renormalised to      36.0000
     Starting wfcs are random

     total cpu time spent up to now is        2.7 secs

     Self-consistent Calculation

     iteration #  1     ecut=    70.00 Ry     beta= 0.70
     Davidson diagonalization with overlap
     ethr =  1.00E-02,  avg # of iterations =  9.3

     Threshold (ethr) on eigenvalues was too large:
     Diagonalizing with lowered threshold

     Davidson diagonalization with overlap
     ethr =  2.91E-04,  avg # of iterations =  2.4

     total cpu time spent up to now is       29.3 secs

     total energy              =    -485.57935838 Ry
     estimated scf accuracy    <       0.09606623 Ry

     iteration #  2     ecut=    70.00 Ry     beta= 0.70
     Davidson diagonalization with overlap
     ethr =  2.67E-04,  avg # of iterations =  2.2

     total cpu time spent up to now is       36.2 secs

     total energy              =    -485.60924355 Ry
     estimated scf accuracy    <       0.04220888 Ry

     iteration #  3     ecut=    70.00 Ry     beta= 0.70
     Davidson diagonalization with overlap
     ethr =  1.17E-04,  avg # of iterations =  2.0

     total cpu time spent up to now is       42.6 secs

     total energy              =    -485.61841515 Ry
     estimated scf accuracy    <       0.00043578 Ry

     iteration #  4     ecut=    70.00 Ry     beta= 0.70
     Davidson diagonalization with overlap
     ethr =  1.21E-06,  avg # of iterations =  3.8

     total cpu time spent up to now is       50.4 secs

     total energy              =    -485.61850220 Ry
     estimated scf accuracy    <       0.00008559 Ry

     iteration #  5     ecut=    70.00 Ry     beta= 0.70
     Davidson diagonalization with overlap
     ethr =  2.38E-07,  avg # of iterations =  2.0

     total cpu time spent up to now is       56.8 secs

     End of self-consistent calculation

          k = 0.0000 0.0000 0.0000 (  4909 PWs)   bands (ev):

   -94.8539 -56.0765 -55.8592 -55.8592 -28.5255 -28.4076 -28.4076 -28.2545
   -28.2545  -3.8886  -0.9843  -0.9843  -0.9416  -0.5701  -0.5701   6.9056
     7.8596   7.8596   8.3640  12.1546  12.1546  13.3733

          k =-0.1429 0.1429-0.1429 (  4828 PWs)   bands (ev):

   -94.8539 -56.0765 -55.8593 -55.8593 -28.5255 -28.4077 -28.4076 -28.2545
   -28.2545  -3.8383  -1.0200  -0.9894  -0.8536  -0.5621  -0.5520   6.2917
     7.0606   7.7973   9.2288  12.1623  12.1635  13.6376

          k =-0.2857 0.2857-0.2857 (  4828 PWs)   bands (ev):

   -94.8539 -56.0765 -55.8593 -55.8593 -28.5255 -28.4077 -28.4077 -28.2545
   -28.2543  -3.7248  -1.0306  -1.0011  -0.7476  -0.5439  -0.4491   4.9370
     6.7352   7.6770   9.3606  12.0171  13.1088  14.0325

          k =-0.4286 0.4286-0.4286 (  4844 PWs)   bands (ev):

   -94.8539 -56.0765 -55.8593 -55.8593 -28.5256 -28.4078 -28.4077 -28.2545
   -28.2542  -3.6343  -1.0249  -1.0107  -0.7119  -0.5290  -0.2709   4.0253
     6.5429   7.5967   9.1930  11.8024  13.8828  14.3202

          k = 0.0000 0.2857 0.0000 (  4837 PWs)   bands (ev):

   -94.8539 -56.0765 -55.8593 -55.8592 -28.5255 -28.4077 -28.4077 -28.2545
   -28.2545  -3.8140  -1.0234  -0.9602  -0.8466  -0.5634  -0.5522   5.9820
     7.1826   7.3930   9.6825  11.6007  12.8505  13.6654

          k =-0.1429 0.4286-0.1429 (  4829 PWs)   bands (ev):

   -94.8539 -56.0765 -55.8593 -55.8593 -28.5256 -28.4077 -28.4077 -28.2545
   -28.2544  -3.7171  -1.0328  -0.9570  -0.7546  -0.5546  -0.4780   5.0521
     6.6550   7.2289  10.0197  11.6089  13.1287  14.2734

          k =-0.2857 0.5714-0.2857 (  4820 PWs)   bands (ev):

   -94.8539 -56.0765 -55.8593 -55.8593 -28.5256 -28.4078 -28.4077 -28.2544
   -28.2542  -3.6210  -1.0350  -0.9685  -0.7067  -0.5408  -0.2952   4.1858
     6.2722   7.0673   9.9258  11.7320  13.7650  14.3451

          k = 0.5714-0.2857 0.5714 (  4823 PWs)   bands (ev):

   -94.8539 -56.0765 -55.8593 -55.8593 -28.5256 -28.4078 -28.4077 -28.2544
   -28.2542  -3.5975  -1.0394  -0.9835  -0.7031  -0.5334  -0.2097   4.0063
     6.0931   7.0371   9.8982  11.7766  13.9953  14.3897

          k = 0.4286-0.1429 0.4286 (  4831 PWs)   bands (ev):

   -94.8539 -56.0765 -55.8593 -55.8593 -28.5255 -28.4078 -28.4077 -28.2544
   -28.2542  -3.6640  -1.0508  -0.9884  -0.7237  -0.5395  -0.3426   4.7038
     6.1273   7.1899  10.0046  12.0196  13.0924  14.0742

          k = 0.2857-0.0000 0.2857 (  4818 PWs)   bands (ev):

   -94.8539 -56.0765 -55.8593 -55.8593 -28.5255 -28.4077 -28.4077 -28.2545
   -28.2544  -3.7714  -1.0500  -0.9854  -0.7840  -0.5524  -0.4937   5.8195
     6.4307   7.4542   9.8717  11.9116  12.4297  13.9588

          k = 0.0000 0.5714 0.0000 (  4837 PWs)   bands (ev):

   -94.8539 -56.0765 -55.8593 -55.8593 -28.5257 -28.4077 -28.4077 -28.2545
   -28.2543  -3.6465  -1.0389  -0.9044  -0.7326  -0.5468  -0.4310   4.6441
     6.6059   6.6081  10.1133  11.2175  14.1801  14.3188

          k =-0.1429 0.7143-0.1429 (  4829 PWs)   bands (ev):

   -94.8539 -56.0765 -55.8593 -55.8593 -28.5257 -28.4078 -28.4077 -28.2545
   -28.2542  -3.5672  -1.0391  -0.9016  -0.6995  -0.5426  -0.2747   4.1009
     6.0398   6.5289   9.9527  11.5454  13.9125  15.3949

          k = 0.7143-0.1429 0.7143 (  4837 PWs)   bands (ev):

   -94.8539 -56.0765 -55.8593 -55.8593 -28.5257 -28.4078 -28.4078 -28.2544
   -28.2542  -3.5386  -1.0395  -0.9341  -0.6879  -0.5417  -0.1478   3.9891
     5.5092   6.5679   9.9958  12.2829  14.0608  15.1036

          k = 0.5714 0.0000 0.5714 (  4840 PWs)   bands (ev):

   -94.8539 -56.0765 -55.8593 -55.8593 -28.5256 -28.4078 -28.4077 -28.2543
   -28.2543  -3.5812  -1.0462  -0.9694  -0.6984  -0.5406  -0.1996   4.4079
     5.3668   6.8175  10.2194  12.5286  13.2704  14.6913

          k = 0.0000 0.8571 0.0000 (  4812 PWs)   bands (ev):

   -94.8539 -56.0765 -55.8593 -55.8593 -28.5258 -28.4078 -28.4078 -28.2545
   -28.2541  -3.5141  -1.0387  -0.8584  -0.6960  -0.5310  -0.2061   3.7540
     6.1047   6.2415   9.6953  10.9113  15.4901  15.8104

          k = 0.8571-0.0000 0.8571 (  4850 PWs)   bands (ev):

   -94.8539 -56.0765 -55.8593 -55.8593 -28.5258 -28.4078 -28.4078 -28.2545
   -28.2541  -3.5016  -1.0382  -0.8778  -0.6868  -0.5357  -0.1391   3.7227
     5.7451   6.2904   9.7194  11.4237  15.3808  15.5750

          k =-0.2857 0.5714 0.0000 (  4817 PWs)   bands (ev):

   -94.8539 -56.0765 -55.8593 -55.8593 -28.5259 -28.4078 -28.4077 -28.2545
   -28.2543  -3.5938  -0.9909  -0.9052  -0.6901  -0.5587  -0.3911   4.0440
     6.0866   7.0208  10.6040  11.8529  13.4756  14.3393

          k = 0.5714-0.2857 0.8571 (  4822 PWs)   bands (ev):

   -94.8539 -56.0765 -55.8593 -55.8593 -28.5258 -28.4078 -28.4077 -28.2545
   -28.2542  -3.5425  -1.0094  -0.9360  -0.6896  -0.5421  -0.1934   3.8919
     5.4663   6.8019  10.6167  12.3409  13.4309  14.5662

          k = 0.7143-0.1429 1.0000 (  4843 PWs)   bands (ev):

   -94.8539 -56.0765 -55.8593 -55.8593 -28.5259 -28.4078 -28.4078 -28.2545
   -28.2542  -3.4997  -1.0154  -0.8771  -0.6797  -0.5436  -0.1629   3.6415
     5.7381   6.2139  10.5545  11.5548  14.2976  15.2809

          k = 0.5714 0.0000 0.8571 (  4824 PWs)   bands (ev):

   -94.8539 -56.0765 -55.8593 -55.8593 -28.5258 -28.4078 -28.4078 -28.2544
   -28.2542  -3.5145  -1.0365  -0.9190  -0.6851  -0.5414  -0.1127   3.9564
     5.4395   6.1148  10.7372  12.2275  13.6415  14.5960

          k =-0.1429 0.1429 0.1429 (  4828 PWs)   bands (ev):

   -94.8539 -56.0765 -55.8592 -55.8592 -28.5256 -28.4077 -28.4077 -28.2545
   -28.2545  -3.8155  -0.9613  -0.9613  -0.8848  -0.5739  -0.5739   5.6513
     7.6173   7.6173   9.4023  12.5576  12.5576  13.0345

          k =-0.2857 0.2857 0.2857 (  4828 PWs)   bands (ev):

   -94.8539 -56.0765 -55.8592 -55.8592 -28.5260 -28.4077 -28.4077 -28.2545
   -28.2545  -3.6486  -0.9092  -0.9092  -0.6980  -0.5817  -0.5817   4.0544
     7.1690   7.1690  10.1422  13.1808  13.1808  13.5650

          k =-0.4286 0.4286 0.4286 (  4844 PWs)   bands (ev):

   -94.8539 -56.0765 -55.8592 -55.8592 -28.5263 -28.4078 -28.4078 -28.2545
   -28.2545  -3.5138  -0.8674  -0.8674  -0.5866  -0.5866  -0.4419   2.9778
     6.8678   6.8678  10.2288  13.2903  13.2903  14.7904

          k =-0.4286-0.1429-0.1429 (  4829 PWs)   bands (ev):

   -94.8539 -56.0765 -55.8593 -55.8593 -28.5255 -28.4077 -28.4077 -28.2545
   -28.2543  -3.7308  -1.0588  -0.9681  -0.7650  -0.5433  -0.4616   5.5274
     6.2385   7.1882  10.1967  11.6142  12.9303  13.6552

          k =-0.1429 0.4286 0.1429 (  4829 PWs)   bands (ev):

   -94.8539 -56.0765 -55.8593 -55.8592 -28.5258 -28.4077 -28.4077 -28.2545
   -28.2544  -3.6792  -0.9792  -0.9031  -0.7403  -0.5702  -0.5387   4.5105
     6.8993   7.1336  10.3769  11.7650  13.7468  13.8168

          k =-0.5714-0.2857-0.2857 (  4820 PWs)   bands (ev):

   -94.8539 -56.0765 -55.8593 -55.8593 -28.5256 -28.4078 -28.4077 -28.2545
   -28.2542  -3.6292  -1.0507  -0.9794  -0.7209  -0.5284  -0.2868   4.4670
     5.8760   7.1434  10.1009  12.6403  12.8330  13.4229

          k =-0.2857 0.5714 0.2857 (  4820 PWs)   bands (ev):

   -94.8539 -56.0765 -55.8593 -55.8592 -28.5261 -28.4078 -28.4078 -28.2545
   -28.2544  -3.5343  -0.9257  -0.8621  -0.6353  -0.5758  -0.4078   3.3270
     6.6295   6.6484  10.7433  12.3758  13.8720  14.0664

          k = 0.2857 0.5714 0.5714 (  4823 PWs)   bands (ev):

   -94.8539 -56.0765 -55.8593 -55.8593 -28.5257 -28.4078 -28.4077 -28.2545
   -28.2542  -3.5860  -1.0160  -0.9854  -0.7043  -0.5303  -0.2124   3.9517
     5.7824   7.2800  10.0344  12.3482  13.1616  14.3314

          k = 0.5714-0.2857-0.5714 (  4823 PWs)   bands (ev):

   -94.8539 -56.0765 -55.8593 -55.8592 -28.5262 -28.4078 -28.4078 -28.2545
   -28.2545  -3.4897  -0.8927  -0.8698  -0.6270  -0.5763  -0.3033   2.9672
     6.2994   6.7537  10.7656  12.7880  13.5674  14.8170

          k = 0.1429 0.4286 0.4286 (  4831 PWs)   bands (ev):

   -94.8539 -56.0765 -55.8593 -55.8593 -28.5257 -28.4078 -28.4077 -28.2545
   -28.2543  -3.6326  -0.9830  -0.9815  -0.7062  -0.5475  -0.3749   4.2505
     6.0543   7.5108  10.0963  12.2766  13.3915  13.6933

          k = 0.4286-0.1429-0.4286 (  4831 PWs)   bands (ev):

   -94.8539 -56.0765 -55.8593 -55.8592 -28.5260 -28.4078 -28.4077 -28.2545
   -28.2545  -3.5788  -0.9183  -0.9061  -0.6589  -0.5730  -0.4604   3.6747
     6.3483   7.1713  10.6551  13.0391  13.1021  13.7558

          k = 0.0000 0.2857 0.2857 (  4818 PWs)   bands (ev):

   -94.8539 -56.0765 -55.8593 -55.8592 -28.5257 -28.4077 -28.4077 -28.2545
   -28.2545  -3.7345  -0.9707  -0.9639  -0.7762  -0.5670  -0.5446   4.9719
     6.7821   7.6709   9.9712  12.3739  12.6384  13.7418

          k =-0.7143-0.1429-0.1429 (  4829 PWs)   bands (ev):

   -94.8539 -56.0765 -55.8593 -55.8593 -28.5257 -28.4078 -28.4077 -28.2545
   -28.2541  -3.5756  -1.0549  -0.9121  -0.7171  -0.5294  -0.2650   4.3953
     5.7048   6.4893  10.6142  11.1460  13.9289  14.2598

          k =-0.1429 0.7143 0.1429 (  4829 PWs)   bands (ev):

   -94.8539 -56.0765 -55.8593 -55.8593 -28.5259 -28.4078 -28.4078 -28.2545
   -28.2543  -3.5346  -1.0010  -0.8582  -0.6784  -0.5510  -0.3093   3.6993
     6.3093   6.3186  10.5769  11.1735  14.4418  15.0032

          k = 0.1429 0.7143 0.7143 (  4837 PWs)   bands (ev):

   -94.8539 -56.0765 -55.8593 -55.8593 -28.5258 -28.4078 -28.4077 -28.2545
   -28.2541  -3.5211  -1.0223  -0.9205  -0.6992  -0.5313  -0.1475   3.9621
     5.1686   6.6127  10.9011  12.1976  13.8255  13.9201

          k = 0.7143-0.1429-0.7143 (  4837 PWs)   bands (ev):

   -94.8539 -56.0765 -55.8593 -55.8593 -28.5261 -28.4078 -28.4078 -28.2545
   -28.2543  -3.4794  -0.9694  -0.8676  -0.6664  -0.5522  -0.1710   3.3000
     5.6751   6.4234  11.1203  11.9849  14.4841  14.5391

          k = 0.0000 0.5714 0.5714 (  4840 PWs)   bands (ev):

   -94.8539 -56.0765 -55.8593 -55.8593 -28.5260 -28.4078 -28.4077 -28.2545
   -28.2543  -3.5228  -0.9590  -0.9233  -0.6785  -0.5508  -0.2289   3.6196
     5.4775   6.9064  11.0134  12.8915  13.4011  13.9782

          k = 0.0000 0.8571 0.8571 (  4850 PWs)   bands (ev):

   -94.8539 -56.0765 -55.8593 -55.8593 -28.5259 -28.4078 -28.4078 -28.2545
   -28.2541  -3.4897  -1.0279  -0.8626  -0.6903  -0.5317  -0.1413   3.6254
     5.7511   6.1510  10.4716  10.9248  15.2312  15.4477

          k = 0.5714 0.2857 0.0000 (  4817 PWs)   bands (ev):

   -94.8539 -56.0765 -55.8593 -55.8593 -28.5256 -28.4078 -28.4077 -28.2545
   -28.2542  -3.6401  -1.0584  -0.9535  -0.7235  -0.5401  -0.3366   4.7954
     5.9179   6.7518  10.6346  11.5336  12.9075  14.4883

          k =-0.2857-0.5714 0.8571 (  4822 PWs)   bands (ev):

   -94.8539 -56.0765 -55.8593 -55.8593 -28.5256 -28.4078 -28.4077 -28.2543
   -28.2542  -3.5682  -1.0513  -0.9482  -0.6958  -0.5410  -0.1855   4.1453
     5.9322   6.2721  10.7024  11.5152  13.5584  15.4202

          k = 0.2857 0.5714 0.8571 (  4822 PWs)   bands (ev):

   -94.8539 -56.0765 -55.8593 -55.8593 -28.5257 -28.4078 -28.4077 -28.2544
   -28.2542  -3.5626  -1.0418  -0.9525  -0.7026  -0.5336  -0.1845   4.2707
     5.3302   6.6753  10.7000  12.4099  12.9077  14.3219

          k = 0.8571-0.2857-0.5714 (  4822 PWs)   bands (ev):

   -94.8539 -56.0765 -55.8593 -55.8593 -28.5261 -28.4078 -28.4078 -28.2545
   -28.2543  -3.4946  -0.9521  -0.8762  -0.6587  -0.5611  -0.2279   3.3053
     5.8353   6.5336  11.2931  12.2441  13.4561  14.7871

          k =-0.1429-0.7143 1.0000 (  4843 PWs)   bands (ev):

   -94.8539 -56.0765 -55.8593 -55.8593 -28.5258 -28.4078 -28.4078 -28.2545
   -28.2541  -3.5201  -1.0434  -0.8991  -0.6952  -0.5347  -0.1537   3.9608
     5.7322   6.0295  10.6308  11.4614  13.7395  15.4019

          k =-0.0000 0.5714 0.8571 (  4824 PWs)   bands (ev):

   -94.8539 -56.0765 -55.8593 -55.8593 -28.5259 -28.4078 -28.4078 -28.2545
   -28.2542  -3.4883  -1.0040  -0.8942  -0.6808  -0.5429  -0.1156   3.6371
     5.3895   6.2058  11.4239  12.0837  13.5269  14.3664

     the Fermi energy is     8.4469 ev

!    total energy              =    -485.61851561 Ry
     estimated scf accuracy    <       0.00000426 Ry
     smearing contrib. (-TS)   =      -0.00058450 Ry
     internal energy E=F+TS    =    -485.61793112 Ry

     The total energy is F=E-TS. E is the sum of the following terms:
     one-electron contribution =    -328.39903135 Ry
     hartree contribution      =     165.36166587 Ry
     xc contribution           =     -46.29657779 Ry
     ewald contribution        =    -276.28398785 Ry

     convergence has been achieved in   5 iterations

     Forces acting on atoms (cartesian axes, Ry/au):

     atom    1 type  1   force =     0.15607486   -0.15607486   -0.15607486
     atom    2 type  2   force =    -0.15607486    0.15607486    0.15607486

     Total force =     0.382304     Total SCF correction =     0.013147


     Computing stress (Cartesian axis) and pressure

          total   stress  (Ry/bohr**3)                   (kbar)     P=       80.30
   0.00054586  -0.00070635  -0.00070635           80.30     -103.91     -103.91
  -0.00070635   0.00054586   0.00070635         -103.91       80.30      103.91
  -0.00070635   0.00070635   0.00054586         -103.91      103.91       80.30


     BFGS Geometry Optimization
     Energy error            =      1.5E-01 Ry
     Gradient error          =      1.6E-01 Ry/Bohr

     number of scf cycles    =   1
     number of bfgs steps    =   0

     energy             new  =    -485.6185156144 Ry

     new trust radius        =       0.2703295818 bohr
     new conv_thr            =       0.0000100000 Ry


ATOMIC_POSITIONS (crystal)
Cd               0.0375140115        0.0375140115        0.0375140115
Te               0.2624859885        0.2624859885        0.2624859885



     Writing config-only to output data dir ./tmp/CdTe.save/ :
     XML data file
     NEW-OLD atomic charge density approx. for the potential

     total cpu time spent up to now is       60.6 secs

     Self-consistent Calculation

     iteration #  1     ecut=    70.00 Ry     beta= 0.70
     Davidson diagonalization with overlap
     ethr =  1.00E-06,  avg # of iterations = 10.2

     total cpu time spent up to now is       82.5 secs

     total energy              =    -485.70165535 Ry
     estimated scf accuracy    <       0.00401356 Ry

     iteration #  2     ecut=    70.00 Ry     beta= 0.70
     Davidson diagonalization with overlap
     ethr =  1.11E-05,  avg # of iterations =  2.0

     total cpu time spent up to now is       89.5 secs

     total energy              =    -485.70273665 Ry
     estimated scf accuracy    <       0.00135835 Ry

     iteration #  3     ecut=    70.00 Ry     beta= 0.70
     Davidson diagonalization with overlap
     ethr =  3.77E-06,  avg # of iterations =  2.0

     total cpu time spent up to now is       95.9 secs

     total energy              =    -485.70306282 Ry
     estimated scf accuracy    <       0.00001830 Ry

     iteration #  4     ecut=    70.00 Ry     beta= 0.70
     Davidson diagonalization with overlap
     ethr =  5.08E-08,  avg # of iterations =  2.0

     total cpu time spent up to now is      102.2 secs

     End of self-consistent calculation

          k = 0.0000 0.0000 0.0000 (  4909 PWs)   bands (ev):

   -94.5141 -55.5978 -55.5405 -55.5405 -28.3609 -28.3212 -28.3212 -28.2574
   -28.2574  -3.3373  -0.6423  -0.5103  -0.5103  -0.3046  -0.3046   7.2633
     7.7637   7.7637   8.2758  12.2015  12.2015  12.7120

          k =-0.1429 0.1429-0.1429 (  4828 PWs)   bands (ev):

   -94.5141 -55.5978 -55.5405 -55.5405 -28.3609 -28.3212 -28.3212 -28.2574
   -28.2573  -3.2764  -0.6361  -0.5099  -0.4543  -0.2995  -0.2989   6.3195
     7.2128   7.6588   9.2197  12.1891  12.3206  12.9967

          k =-0.2857 0.2857-0.2857 (  4828 PWs)   bands (ev):

   -94.5141 -55.5978 -55.5406 -55.5405 -28.3608 -28.3212 -28.3211 -28.2574
   -28.2572  -3.1393  -0.6144  -0.5116  -0.3554  -0.2833  -0.2199   4.8464
     6.9059   7.4525   9.4327  12.3843  13.1028  13.4684

          k =-0.4286 0.4286-0.4286 (  4844 PWs)   bands (ev):

   -94.5141 -55.5978 -55.5406 -55.5405 -28.3608 -28.3212 -28.3211 -28.2573
   -28.2570  -3.0304  -0.5935  -0.5150  -0.3373  -0.2685  -0.0196   3.8747
     6.6940   7.3091   9.2987  12.2778  13.4070  14.4062

          k = 0.0000 0.2857 0.0000 (  4837 PWs)   bands (ev):

   -94.5141 -55.5978 -55.5405 -55.5405 -28.3609 -28.3212 -28.3211 -28.2574
   -28.2573  -3.2519  -0.6203  -0.4860  -0.4632  -0.3008  -0.2994   6.1324
     7.1475   7.3269   9.6887  11.5979  12.8752  13.2078

          k =-0.1429 0.4286-0.1429 (  4829 PWs)   bands (ev):

   -94.5141 -55.5978 -55.5405 -55.5405 -28.3609 -28.3212 -28.3211 -28.2574
   -28.2572  -3.1380  -0.5954  -0.4879  -0.3735  -0.2951  -0.2445   5.0781
     6.7173   7.0670  10.1257  11.6634  13.1644  13.8013

          k =-0.2857 0.5714-0.2857 (  4820 PWs)   bands (ev):

   -94.5141 -55.5978 -55.5406 -55.5405 -28.3608 -28.3212 -28.3211 -28.2573
   -28.2571  -3.0217  -0.5767  -0.4964  -0.3385  -0.2821  -0.0472   4.0946
     6.3738   6.8379  10.0716  12.0335  13.7074  13.9267

          k = 0.5714-0.2857 0.5714 (  4823 PWs)   bands (ev):

   -94.5141 -55.5978 -55.5406 -55.5405 -28.3608 -28.3212 -28.3211 -28.2573
   -28.2570  -2.9897  -0.5815  -0.5013  -0.3381  -0.2734   0.0490   3.8381
     6.1883   6.8351  10.0437  12.1290  13.6685  14.4510

          k = 0.4286-0.1429 0.4286 (  4831 PWs)   bands (ev):

   -94.5141 -55.5978 -55.5406 -55.5405 -28.3608 -28.3212 -28.3211 -28.2573
   -28.2571  -3.0646  -0.6083  -0.5005  -0.3507  -0.2795  -0.1033   4.5156
     6.2465   7.0618  10.1182  12.3375  13.1866  13.6007

          k = 0.2857-0.0000 0.2857 (  4818 PWs)   bands (ev):

   -94.5141 -55.5978 -55.5405 -55.5405 -28.3608 -28.3212 -28.3212 -28.2574
   -28.2572  -3.1927  -0.6338  -0.5018  -0.3947  -0.2927  -0.2584   5.6216
     6.6612   7.3632   9.9022  12.0153  12.6303  13.3682

          k = 0.0000 0.5714 0.0000 (  4837 PWs)   bands (ev):

   -94.5141 -55.5978 -55.5405 -55.5405 -28.3609 -28.3212 -28.3210 -28.2574
   -28.2571  -3.0614  -0.5659  -0.4289  -0.3979  -0.2870  -0.1905   4.7084
     6.4891   6.5761  10.3646  11.0322  14.2890  14.3445

          k =-0.1429 0.7143-0.1429 (  4829 PWs)   bands (ev):

   -94.5141 -55.5978 -55.5406 -55.5405 -28.3609 -28.3212 -28.3210 -28.2573
   -28.2571  -2.9692  -0.5445  -0.4439  -0.3595  -0.2841  -0.0212   4.0914
     6.0401   6.3448  10.2810  11.4092  13.9675  15.0911

          k = 0.7143-0.1429 0.7143 (  4837 PWs)   bands (ev):

   -94.5141 -55.5978 -55.5406 -55.5405 -28.3609 -28.3212 -28.3210 -28.2572
   -28.2571  -2.9306  -0.5470  -0.4693  -0.3400  -0.2836   0.1197   3.8681
     5.5179   6.3954  10.3381  12.3160  14.1449  14.7948

          k = 0.5714 0.0000 0.5714 (  4840 PWs)   bands (ev):

   -94.5141 -55.5978 -55.5406 -55.5405 -28.3608 -28.3212 -28.3211 -28.2572
   -28.2571  -2.9721  -0.5766  -0.4862  -0.3423  -0.2812   0.0574   4.1788
     5.4502   6.6901  10.5093  12.6365  13.4797  14.2574

          k = 0.0000 0.8571 0.0000 (  4812 PWs)   bands (ev):

   -94.5141 -55.5978 -55.5406 -55.5405 -28.3609 -28.3213 -28.3210 -28.2574
   -28.2570  -2.9134  -0.5219  -0.3966  -0.3809  -0.2755   0.0600   3.7517
     6.0580   6.0929  10.0647  10.6873  15.6868  15.9214

          k = 0.8571-0.0000 0.8571 (  4850 PWs)   bands (ev):

   -94.5141 -55.5978 -55.5406 -55.5405 -28.3609 -28.3213 -28.3210 -28.2573
   -28.2570  -2.8967  -0.5217  -0.4272  -0.3551  -0.2789   0.1342   3.6801
     5.7225   6.1001  10.1037  11.2565  15.4385  15.8147

          k =-0.2857 0.5714 0.0000 (  4817 PWs)   bands (ev):

   -94.5141 -55.5978 -55.5405 -55.5405 -28.3610 -28.3212 -28.3210 -28.2574
   -28.2572  -3.0159  -0.5161  -0.4457  -0.3492  -0.3042  -0.1416   4.1866
     6.0624   6.8827  10.7441  11.7517  13.2979  14.2635

          k = 0.5714-0.2857 0.8571 (  4822 PWs)   bands (ev):

   -94.5141 -55.5978 -55.5406 -55.5405 -28.3609 -28.3212 -28.3211 -28.2573
   -28.2571  -2.9457  -0.5319  -0.4621  -0.3455  -0.2866   0.0691   3.8498
     5.5226   6.6284  10.8063  12.3404  13.3151  14.6629

          k = 0.7143-0.1429 1.0000 (  4843 PWs)   bands (ev):

   -94.5141 -55.5978 -55.5406 -55.5405 -28.3610 -28.3212 -28.3210 -28.2574
   -28.2570  -2.9043  -0.5073  -0.4196  -0.3529  -0.2911   0.1079   3.6752
     5.6951   6.0834  10.8578  11.3942  14.1319  15.4134

          k = 0.5714 0.0000 0.8571 (  4824 PWs)   bands (ev):

   -94.5141 -55.5978 -55.5406 -55.5406 -28.3609 -28.3212 -28.3210 -28.2572
   -28.2571  -2.9078  -0.5371  -0.4528  -0.3442  -0.2851   0.1598   3.8482
     5.4337   6.0006  11.0307  12.3128  13.5550  14.4853

          k =-0.1429 0.1429 0.1429 (  4828 PWs)   bands (ev):

   -94.5141 -55.5978 -55.5405 -55.5405 -28.3609 -28.3211 -28.3211 -28.2574
   -28.2574  -3.2635  -0.5859  -0.4886  -0.4886  -0.3107  -0.3107   5.9168
     7.5640   7.5640   9.3333  12.5311  12.5311  12.5673

          k =-0.2857 0.2857 0.2857 (  4828 PWs)   bands (ev):

   -94.5141 -55.5978 -55.5405 -55.5405 -28.3611 -28.3211 -28.3211 -28.2574
   -28.2574  -3.0966  -0.4376  -0.4376  -0.3954  -0.3256  -0.3256   4.3153
     7.1851   7.1851   9.8616  13.0126  13.0126  13.3629

          k =-0.4286 0.4286 0.4286 (  4844 PWs)   bands (ev):

   -94.5141 -55.5979 -55.5405 -55.5405 -28.3612 -28.3210 -28.3210 -28.2574
   -28.2574  -2.9643  -0.3904  -0.3904  -0.3429  -0.3429  -0.1270   3.2320
     6.9265   6.9265   9.8417  13.0854  13.0854  14.6986

          k =-0.4286-0.1429-0.1429 (  4829 PWs)   bands (ev):

   -94.5141 -55.5978 -55.5405 -55.5405 -28.3608 -28.3212 -28.3211 -28.2574
   -28.2571  -3.1456  -0.6244  -0.4852  -0.3899  -0.2811  -0.2290   5.3063
     6.5095   7.0644  10.2208  11.6550  13.1502  13.4294

          k =-0.1429 0.4286 0.1429 (  4829 PWs)   bands (ev):

   -94.5141 -55.5978 -55.5405 -55.5405 -28.3610 -28.3211 -28.3210 -28.2574
   -28.2573  -3.1168  -0.5231  -0.4329  -0.4046  -0.3111  -0.2936   4.7365
     6.9079   7.0055  10.3486  11.6693  13.5570  13.5906

          k =-0.5714-0.2857-0.2857 (  4820 PWs)   bands (ev):

   -94.5141 -55.5978 -55.5406 -55.5405 -28.3608 -28.3212 -28.3212 -28.2574
   -28.2570  -3.0262  -0.5996  -0.4888  -0.3595  -0.2675  -0.0397   4.2356
     6.1039   6.9605  10.1543  12.7005  12.9992  13.4433

          k =-0.2857 0.5714 0.2857 (  4820 PWs)   bands (ev):

   -94.5141 -55.5979 -55.5405 -55.5405 -28.3612 -28.3211 -28.3210 -28.2574
   -28.2573  -2.9743  -0.4455  -0.3857  -0.3527  -0.3297  -0.1284   3.5599
     6.5564   6.6935  10.4922  12.3468  13.6759  13.9281

          k = 0.2857 0.5714 0.5714 (  4823 PWs)   bands (ev):

   -94.5141 -55.5978 -55.5406 -55.5405 -28.3609 -28.3212 -28.3211 -28.2573
   -28.2570  -2.9836  -0.5687  -0.4921  -0.3446  -0.2713   0.0468   3.8052
     5.9307   7.0689  10.0973  12.7493  12.9043  14.4143

          k = 0.5714-0.2857-0.5714 (  4823 PWs)   bands (ev):

   -94.5141 -55.5979 -55.5405 -55.5405 -28.3612 -28.3210 -28.3210 -28.2574
   -28.2573  -2.9313  -0.4148  -0.3891  -0.3514  -0.3335  -0.0116   3.1948
     6.2696   6.7881  10.4756  12.6585  13.4241  14.7908

          k = 0.1429 0.4286 0.4286 (  4831 PWs)   bands (ev):

   -94.5141 -55.5978 -55.5406 -55.5405 -28.3609 -28.3212 -28.3211 -28.2574
   -28.2572  -3.0475  -0.5534  -0.4915  -0.3381  -0.2904  -0.1322   4.2722
     6.1172   7.3253  10.1517  12.6180  13.1140  13.5061

          k = 0.4286-0.1429-0.4286 (  4831 PWs)   bands (ev):

   -94.5141 -55.5978 -55.5405 -55.5405 -28.3611 -28.3211 -28.3210 -28.2574
   -28.2573  -3.0178  -0.4525  -0.4387  -0.3421  -0.3212  -0.1981   3.9049
     6.3266   7.1466  10.4531  12.8764  13.0794  13.5797

          k = 0.0000 0.2857 0.2857 (  4818 PWs)   bands (ev):

   -94.5141 -55.5978 -55.5405 -55.5405 -28.3610 -28.3211 -28.3211 -28.2574
   -28.2573  -3.1720  -0.5589  -0.4898  -0.3936  -0.3080  -0.3022   5.1665
     6.7671   7.5593   9.9652  12.3948  12.5115  13.3784

          k =-0.7143-0.1429-0.1429 (  4829 PWs)   bands (ev):

   -94.5141 -55.5978 -55.5406 -55.5405 -28.3609 -28.3212 -28.3210 -28.2574
   -28.2570  -2.9737  -0.5661  -0.4303  -0.3888  -0.2698  -0.0130   4.2605
     5.7690   6.4216  10.6798  11.1548  13.9357  14.4780

          k =-0.1429 0.7143 0.1429 (  4829 PWs)   bands (ev):

   -94.5141 -55.5978 -55.5405 -55.5405 -28.3610 -28.3212 -28.3210 -28.2574
   -28.2571  -2.9516  -0.5006  -0.3814  -0.3803  -0.2999  -0.0477   3.8352
     6.1371   6.3224  10.7515  11.0424  14.2842  14.8941

          k = 0.1429 0.7143 0.7143 (  4837 PWs)   bands (ev):

   -94.5141 -55.5978 -55.5406 -55.5405 -28.3609 -28.3212 -28.3211 -28.2574
   -28.2570  -2.9214  -0.5358  -0.4348  -0.3717  -0.2746   0.1201   3.8508
     5.2498   6.5268  10.7807  12.3470  13.9439  14.0870

          k = 0.7143-0.1429-0.7143 (  4837 PWs)   bands (ev):

   -94.5141 -55.5979 -55.5406 -55.5405 -28.3611 -28.3211 -28.3210 -28.2574
   -28.2571  -2.8992  -0.4725  -0.3859  -0.3696  -0.3047   0.1057   3.4354
     5.5675   6.4233  10.8872  12.1685  14.4402  14.4669

          k = 0.0000 0.5714 0.5714 (  4840 PWs)   bands (ev):

   -94.5141 -55.5978 -55.5406 -55.5405 -28.3610 -28.3211 -28.3211 -28.2574
   -28.2571  -2.9410  -0.4924  -0.4378  -0.3522  -0.2984   0.0354   3.7252
     5.4474   6.8350  10.8920  12.8691  13.5805  13.8710

          k = 0.0000 0.8571 0.8571 (  4850 PWs)   bands (ev):

   -94.5141 -55.5978 -55.5406 -55.5405 -28.3610 -28.3212 -28.3210 -28.2574
   -28.2570  -2.8905  -0.5120  -0.3908  -0.3830  -0.2777   0.1332   3.6212
     5.6365   6.1336  10.6704  10.8099  15.3371  15.5872

          k = 0.5714 0.2857 0.0000 (  4817 PWs)   bands (ev):

   -94.5141 -55.5978 -55.5406 -55.5405 -28.3608 -28.3212 -28.3211 -28.2573
   -28.2571  -3.0411  -0.5958  -0.4748  -0.3651  -0.2794  -0.0954   4.6228
     6.0085   6.6769  10.7498  11.6510  12.9216  14.3741

          k =-0.2857-0.5714 0.8571 (  4822 PWs)   bands (ev):

   -94.5141 -55.5978 -55.5406 -55.5405 -28.3608 -28.3212 -28.3211 -28.2572
   -28.2571  -2.9593  -0.5693  -0.4783  -0.3409  -0.2818   0.0750   3.9972
     5.8621   6.2449  10.8736  11.8322  13.4207  15.1008

          k = 0.2857 0.5714 0.8571 (  4822 PWs)   bands (ev):

   -94.5141 -55.5978 -55.5406 -55.5405 -28.3608 -28.3212 -28.3211 -28.2573
   -28.2570  -2.9563  -0.5667  -0.4687  -0.3560  -0.2741   0.0757   4.0522
     5.4829   6.5352  10.8554  12.4493  12.9581  14.4447

          k = 0.8571-0.2857-0.5714 (  4822 PWs)   bands (ev):

   -94.5141 -55.5979 -55.5405 -55.5405 -28.3611 -28.3211 -28.3210 -28.2574
   -28.2572  -2.9200  -0.4635  -0.4046  -0.3495  -0.3160   0.0459   3.4734
     5.7595   6.5010  11.1516  12.2633  13.3338  14.8341

          k =-0.1429-0.7143 1.0000 (  4843 PWs)   bands (ev):

   -94.5141 -55.5978 -55.5406 -55.5405 -28.3609 -28.3212 -28.3210 -28.2573
   -28.2570  -2.9150  -0.5386  -0.4339  -0.3633  -0.2766   0.1139   3.8735
     5.6943   5.9637  10.9077  11.3604  13.7915  15.4732

          k =-0.0000 0.5714 0.8571 (  4824 PWs)   bands (ev):

   -94.5141 -55.5978 -55.5406 -55.5405 -28.3610 -28.3212 -28.3210 -28.2573
   -28.2571  -2.8941  -0.5047  -0.4217  -0.3573  -0.2909   0.1591   3.6546
     5.3454   6.1331  11.3733  12.2688  13.4831  14.3388

     the Fermi energy is     8.3555 ev

!    total energy              =    -485.70306615 Ry
     estimated scf accuracy    <       0.00000136 Ry
     smearing contrib. (-TS)   =      -0.00042368 Ry
     internal energy E=F+TS    =    -485.70264246 Ry

     The total energy is F=E-TS. E is the sum of the following terms:
     one-electron contribution =    -320.57783834 Ry
     hartree contribution      =     161.72357959 Ry
     xc contribution           =     -46.24056908 Ry
     ewald contribution        =    -280.60781463 Ry

     convergence has been achieved in   4 iterations

     Forces acting on atoms (cartesian axes, Ry/au):

     atom    1 type  1   force =     0.04266169   -0.04266169   -0.04266169
     atom    2 type  2   force =    -0.04266169    0.04266169    0.04266169

     Total force =     0.104499     Total SCF correction =     0.008427


     Computing stress (Cartesian axis) and pressure

          total   stress  (Ry/bohr**3)                   (kbar)     P=       18.05
   0.00012267  -0.00020513  -0.00020513           18.05      -30.18      -30.18
  -0.00020513   0.00012267   0.00020513          -30.18       18.05       30.18
  -0.00020513   0.00020513   0.00012267          -30.18       30.18       18.05

     Energy error            =      8.5E-02 Ry
     Gradient error          =      4.3E-02 Ry/Bohr

     number of scf cycles    =   2
     number of bfgs steps    =   1

     energy             old  =    -485.6185156144 Ry
     energy             new  =    -485.7030661451 Ry

     CASE: energy            _new < energy            _old

     new trust radius        =       0.1016876330 bohr
     new conv_thr            =       0.0000042662 Ry


ATOMIC_POSITIONS (crystal)
Cd               0.0328172609        0.0328172609        0.0328172609
Te               0.2671827391        0.2671827391        0.2671827391



     Writing config-only to output data dir ./tmp/CdTe.save/ :
     XML data file
     NEW-OLD atomic charge density approx. for the potential

     total cpu time spent up to now is      105.5 secs

     Self-consistent Calculation

     iteration #  1     ecut=    70.00 Ry     beta= 0.70
     Davidson diagonalization with overlap
     ethr =  1.00E-06,  avg # of iterations =  8.3

     total cpu time spent up to now is      122.1 secs

     total energy              =    -485.71418470 Ry
     estimated scf accuracy    <       0.00027365 Ry

     iteration #  2     ecut=    70.00 Ry     beta= 0.70
     Davidson diagonalization with overlap
     ethr =  7.60E-07,  avg # of iterations =  2.0

     total cpu time spent up to now is      128.4 secs

     total energy              =    -485.71422830 Ry
     estimated scf accuracy    <       0.00004134 Ry

     iteration #  3     ecut=    70.00 Ry     beta= 0.70
     Davidson diagonalization with overlap
     ethr =  1.15E-07,  avg # of iterations =  2.0

     total cpu time spent up to now is      134.8 secs

     total energy              =    -485.71424067 Ry
     estimated scf accuracy    <       0.00000513 Ry

     iteration #  4     ecut=    70.00 Ry     beta= 0.70
     Davidson diagonalization with overlap
     ethr =  1.43E-08,  avg # of iterations =  2.0

     total cpu time spent up to now is      141.0 secs

     End of self-consistent calculation

          k = 0.0000 0.0000 0.0000 (  4909 PWs)   bands (ev):

   -94.4475 -55.5097 -55.4813 -55.4813 -28.3332 -28.3095 -28.3095 -28.2707
   -28.2707  -3.2541  -0.5527  -0.4469  -0.4469  -0.2537  -0.2537   7.4189
     7.7178   7.7178   8.2469  12.2353  12.2353  12.5159

          k =-0.1429 0.1429-0.1429 (  4828 PWs)   bands (ev):

   -94.4475 -55.5097 -55.4813 -55.4813 -28.3332 -28.3095 -28.3095 -28.2707
   -28.2707  -3.1913  -0.5412  -0.4422  -0.3918  -0.2529  -0.2506   6.3037
     7.3139   7.5953   9.2160  12.2220  12.4006  12.7913

          k =-0.2857 0.2857-0.2857 (  4828 PWs)   bands (ev):

   -94.4475 -55.5097 -55.4813 -55.4813 -28.3331 -28.3095 -28.3095 -28.2707
   -28.2705  -3.0501  -0.5131  -0.4351  -0.2759  -0.2398  -0.1934   4.8035
     7.0068   7.3547   9.4604  12.5555  13.0756  13.3023

          k =-0.4286 0.4286-0.4286 (  4844 PWs)   bands (ev):

   -94.4475 -55.5097 -55.4813 -55.4813 -28.3331 -28.3096 -28.3094 -28.2707
   -28.2704  -2.9384  -0.4908  -0.4328  -0.2638  -0.2275   0.0205   3.8130
     6.7922   7.1870   9.3395  12.4936  13.2049  14.4490

          k = 0.0000 0.2857 0.0000 (  4837 PWs)   bands (ev):

   -94.4475 -55.5097 -55.4813 -55.4813 -28.3332 -28.3095 -28.3095 -28.2707
   -28.2706  -3.1678  -0.5246  -0.4229  -0.3984  -0.2560  -0.2488   6.1770
     7.1646   7.2922   9.6857  11.6020  12.9019  13.0806

          k =-0.1429 0.4286-0.1429 (  4829 PWs)   bands (ev):

   -94.4475 -55.5097 -55.4813 -55.4813 -28.3331 -28.3095 -28.3094 -28.2707
   -28.2705  -3.0516  -0.4947  -0.4170  -0.3010  -0.2474  -0.2132   5.0816
     6.7723   6.9978  10.1566  11.6814  13.2126  13.6496

          k =-0.2857 0.5714-0.2857 (  4820 PWs)   bands (ev):

   -94.4475 -55.5097 -55.4813 -55.4813 -28.3331 -28.3096 -28.3094 -28.2707
   -28.2704  -2.9319  -0.4736  -0.4178  -0.2677  -0.2393  -0.0080   4.0577
     6.4346   6.7566  10.1172  12.1634  13.6452  13.8128

          k = 0.5714-0.2857 0.5714 (  4823 PWs)   bands (ev):

   -94.4475 -55.5097 -55.4813 -55.4813 -28.3331 -28.3095 -28.3094 -28.2706
   -28.2704  -2.8977  -0.4760  -0.4197  -0.2659  -0.2328   0.0929   3.7706
     6.2254   6.7877  10.0876  12.2887  13.5050  14.5009

          k = 0.4286-0.1429 0.4286 (  4831 PWs)   bands (ev):

   -94.4475 -55.5097 -55.4813 -55.4813 -28.3331 -28.3095 -28.3095 -28.2707
   -28.2704  -2.9730  -0.5011  -0.4216  -0.2757  -0.2380  -0.0703   4.4368
     6.2850   7.0473  10.1493  12.4898  13.2063  13.4428

          k = 0.2857-0.0000 0.2857 (  4818 PWs)   bands (ev):

   -94.4475 -55.5097 -55.4813 -55.4813 -28.3331 -28.3095 -28.3095 -28.2707
   -28.2705  -3.1040  -0.5313  -0.4296  -0.3201  -0.2501  -0.2252   5.5418
     6.7371   7.3564   9.9044  12.0826  12.7087  13.1922

          k = 0.0000 0.5714 0.0000 (  4837 PWs)   bands (ev):

   -94.4475 -55.5097 -55.4813 -55.4813 -28.3332 -28.3096 -28.3093 -28.2707
   -28.2705  -2.9758  -0.4605  -0.3657  -0.3282  -0.2377  -0.1541   4.7341
     6.4781   6.5554  10.4346  10.9775  14.3471  14.3728

          k =-0.1429 0.7143-0.1429 (  4829 PWs)   bands (ev):

   -94.4475 -55.5097 -55.4813 -55.4813 -28.3331 -28.3096 -28.3093 -28.2707
   -28.2704  -2.8821  -0.4365  -0.3731  -0.2978  -0.2358   0.0224   4.0929
     6.0431   6.3013  10.3912  11.3544  13.9984  14.9679

          k = 0.7143-0.1429 0.7143 (  4837 PWs)   bands (ev):

   -94.4475 -55.5097 -55.4813 -55.4813 -28.3331 -28.3096 -28.3093 -28.2706
   -28.2704  -2.8410  -0.4382  -0.3916  -0.2742  -0.2404   0.1689   3.8244
     5.5158   6.3682  10.4517  12.3291  14.1659  14.6598

          k = 0.5714 0.0000 0.5714 (  4840 PWs)   bands (ev):

   -94.4475 -55.5097 -55.4813 -55.4813 -28.3331 -28.3095 -28.3094 -28.2706
   -28.2705  -2.8805  -0.4670  -0.4054  -0.2714  -0.2408   0.1008   4.0906
     5.4732   6.6795  10.5989  12.6933  13.5719  14.0806

          k = 0.0000 0.8571 0.0000 (  4812 PWs)   bands (ev):

   -94.4475 -55.5097 -55.4813 -55.4813 -28.3331 -28.3096 -28.3092 -28.2707
   -28.2703  -2.8274  -0.4102  -0.3357  -0.3163  -0.2286   0.1104   3.7625
     6.0289   6.0793  10.1846  10.6043  15.7374  15.9810

          k = 0.8571-0.0000 0.8571 (  4850 PWs)   bands (ev):

   -94.4475 -55.5097 -55.4813 -55.4813 -28.3331 -28.3096 -28.3093 -28.2707
   -28.2703  -2.8097  -0.4099  -0.3584  -0.2946  -0.2323   0.1870   3.6749
     5.7081   6.0656  10.2353  11.1874  15.4239  15.9131

          k =-0.2857 0.5714 0.0000 (  4817 PWs)   bands (ev):

   -94.4475 -55.5097 -55.4813 -55.4813 -28.3332 -28.3095 -28.3093 -28.2707
   -28.2705  -2.9349  -0.4256  -0.3803  -0.2869  -0.2514  -0.0952   4.2684
     6.0610   6.8261  10.7730  11.7323  13.2193  14.2560

          k = 0.5714-0.2857 0.8571 (  4822 PWs)   bands (ev):

   -94.4475 -55.5097 -55.4813 -55.4813 -28.3331 -28.3095 -28.3094 -28.2707
   -28.2704  -2.8598  -0.4334  -0.3866  -0.2766  -0.2438   0.1165   3.8440
     5.5707   6.5575  10.8646  12.3328  13.2690  14.6962

          k = 0.7143-0.1429 1.0000 (  4843 PWs)   bands (ev):

   -94.4475 -55.5097 -55.4813 -55.4813 -28.3332 -28.3095 -28.3093 -28.2707
   -28.2704  -2.8206  -0.4048  -0.3525  -0.2919  -0.2434   0.1601   3.7131
     5.6917   6.0363  10.9533  11.3403  14.0610  15.4369

          k = 0.5714 0.0000 0.8571 (  4824 PWs)   bands (ev):

   -94.4475 -55.5097 -55.4813 -55.4813 -28.3331 -28.3095 -28.3093 -28.2706
   -28.2704  -2.8195  -0.4284  -0.3773  -0.2771  -0.2435   0.2116   3.8130
     5.4305   5.9854  11.1219  12.3467  13.5180  14.4425

          k =-0.1429 0.1429 0.1429 (  4828 PWs)   bands (ev):

   -94.4475 -55.5097 -55.4813 -55.4813 -28.3332 -28.3095 -28.3095 -28.2707
   -28.2707  -3.1831  -0.4959  -0.4286  -0.4286  -0.2582  -0.2582   6.0416
     7.5361   7.5361   9.3024  12.4262  12.5335  12.5335

          k =-0.2857 0.2857 0.2857 (  4828 PWs)   bands (ev):

   -94.4475 -55.5097 -55.4813 -55.4813 -28.3333 -28.3094 -28.3094 -28.2707
   -28.2707  -3.0233  -0.3878  -0.3878  -0.3064  -0.2668  -0.2668   4.4570
     7.1877   7.1877   9.7415  12.9553  12.9553  13.3033

          k =-0.4286 0.4286 0.4286 (  4844 PWs)   bands (ev):

   -94.4475 -55.5097 -55.4813 -55.4813 -28.3334 -28.3093 -28.3093 -28.2707
   -28.2707  -2.8971  -0.3574  -0.3574  -0.2706  -0.2706  -0.0445   3.3915
     6.9481   6.9481   9.6864  13.0084  13.0084  14.6363

          k =-0.4286-0.1429-0.1429 (  4829 PWs)   bands (ev):

   -94.4475 -55.5097 -55.4813 -55.4813 -28.3331 -28.3095 -28.3095 -28.2707
   -28.2705  -3.0564  -0.5185  -0.4133  -0.3143  -0.2356  -0.2004   5.2171
     6.6433   7.0042  10.2166  11.6723  13.2629  13.3651

          k =-0.1429 0.4286 0.1429 (  4829 PWs)   bands (ev):

   -94.4475 -55.5097 -55.4813 -55.4813 -28.3333 -28.3095 -28.3093 -28.2707
   -28.2706  -3.0383  -0.4372  -0.3799  -0.3327  -0.2547  -0.2481   4.8548
     6.9055   6.9553  10.3105  11.6613  13.4612  13.5432

          k =-0.5714-0.2857-0.2857 (  4820 PWs)   bands (ev):

   -94.4475 -55.5097 -55.4813 -55.4813 -28.3331 -28.3095 -28.3095 -28.2707
   -28.2704  -2.9347  -0.4916  -0.4100  -0.2868  -0.2255  -0.0020   4.1434
     6.2277   6.8760  10.1701  12.5709  13.1725  13.5402

          k =-0.2857 0.5714 0.2857 (  4820 PWs)   bands (ev):

   -94.4475 -55.5097 -55.4813 -55.4813 -28.3333 -28.3094 -28.3093 -28.2707
   -28.2706  -2.9023  -0.3824  -0.3463  -0.2877  -0.2628  -0.0606   3.7044
     6.5223   6.7077  10.3849  12.3434  13.6060  13.8618

          k = 0.2857 0.5714 0.5714 (  4823 PWs)   bands (ev):

   -94.4475 -55.5097 -55.4813 -55.4813 -28.3331 -28.3095 -28.3094 -28.2707
   -28.2704  -2.8940  -0.4678  -0.4118  -0.2723  -0.2303   0.0913   3.7494
     6.0250   6.9742  10.1207  12.7672  12.9388  14.4713

          k = 0.5714-0.2857-0.5714 (  4823 PWs)   bands (ev):

   -94.4475 -55.5097 -55.4813 -55.4813 -28.3334 -28.3093 -28.3093 -28.2707
   -28.2706  -2.8614  -0.3653  -0.3466  -0.2785  -0.2692   0.0557   3.3471
     6.2523   6.7979  10.3596  12.6087  13.3724  14.7241

          k = 0.1429 0.4286 0.4286 (  4831 PWs)   bands (ev):

   -94.4475 -55.5097 -55.4813 -55.4813 -28.3332 -28.3095 -28.3094 -28.2707
   -28.2705  -2.9623  -0.4601  -0.4160  -0.2655  -0.2475  -0.0929   4.2859
     6.1703   7.2426  10.1719  12.7791  12.9709  13.4649

          k = 0.4286-0.1429-0.4286 (  4831 PWs)   bands (ev):

   -94.4475 -55.5097 -55.4813 -55.4813 -28.3333 -28.3094 -28.3093 -28.2707
   -28.2707  -2.9437  -0.3885  -0.3807  -0.2722  -0.2685  -0.1363   4.0402
     6.3145   7.1310  10.3652  12.8194  13.0771  13.5122

          k = 0.0000 0.2857 0.2857 (  4818 PWs)   bands (ev):

   -94.4475 -55.5097 -55.4813 -55.4813 -28.3332 -28.3095 -28.3094 -28.2707
   -28.2707  -3.0910  -0.4691  -0.4236  -0.3303  -0.2595  -0.2543   5.2586
     6.7687   7.5075   9.9560  12.3113  12.5794  13.2676

          k =-0.7143-0.1429-0.1429 (  4829 PWs)   bands (ev):

   -94.4475 -55.5097 -55.4813 -55.4813 -28.3331 -28.3096 -28.3093 -28.2707
   -28.2703  -2.8849  -0.4542  -0.3589  -0.3208  -0.2256   0.0285   4.1996
     5.8411   6.3836  10.6461  11.1928  13.9598  14.5927

          k =-0.1429 0.7143 0.1429 (  4829 PWs)   bands (ev):

   -94.4475 -55.5097 -55.4813 -55.4813 -28.3332 -28.3095 -28.3092 -28.2707
   -28.2705  -2.8712  -0.4054  -0.3266  -0.3181  -0.2458   0.0043   3.9224
     6.0797   6.3207  10.7018  11.1029  14.2018  14.8618

          k = 0.1429 0.7143 0.7143 (  4837 PWs)   bands (ev):

   -94.4475 -55.5097 -55.4813 -55.4813 -28.3331 -28.3095 -28.3094 -28.2707
   -28.2703  -2.8354  -0.4335  -0.3609  -0.3022  -0.2322   0.1695   3.8139
     5.3186   6.4817  10.7236  12.3621  14.0072  14.2201

          k = 0.7143-0.1429-0.7143 (  4837 PWs)   bands (ev):

   -94.4475 -55.5097 -55.4813 -55.4813 -28.3333 -28.3094 -28.3093 -28.2707
   -28.2705  -2.8216  -0.3891  -0.3271  -0.3027  -0.2539   0.1610   3.5388
     5.5298   6.4161  10.7885  12.2361  14.3595  14.4690

          k = 0.0000 0.5714 0.5714 (  4840 PWs)   bands (ev):

   -94.4475 -55.5097 -55.4813 -55.4813 -28.3332 -28.3094 -28.3094 -28.2707
   -28.2705  -2.8612  -0.4093  -0.3685  -0.2811  -0.2537   0.0859   3.8013
     5.4481   6.7977  10.8349  12.8424  13.6706  13.8215

          k = 0.0000 0.8571 0.8571 (  4850 PWs)   bands (ev):

   -94.4475 -55.5097 -55.4813 -55.4813 -28.3332 -28.3096 -28.3092 -28.2707
   -28.2703  -2.8059  -0.4048  -0.3285  -0.3168  -0.2320   0.1867   3.6373
     5.6254   6.1177  10.5864  10.9096  15.3622  15.6612

          k = 0.5714 0.2857 0.0000 (  4817 PWs)   bands (ev):

   -94.4475 -55.5097 -55.4813 -55.4813 -28.3331 -28.3096 -28.3094 -28.2707
   -28.2704  -2.9507  -0.4860  -0.3994  -0.2945  -0.2350  -0.0609   4.5472
     6.0495   6.6726  10.7647  11.6963  12.9602  14.3275

          k =-0.2857-0.5714 0.8571 (  4822 PWs)   bands (ev):

   -94.4475 -55.5097 -55.4813 -55.4813 -28.3331 -28.3096 -28.3094 -28.2706
   -28.2704  -2.8682  -0.4593  -0.3997  -0.2719  -0.2399   0.1206   3.9376
     5.8039   6.2971  10.9042  11.9980  13.3491  14.9526

          k = 0.2857 0.5714 0.8571 (  4822 PWs)   bands (ev):

   -94.4475 -55.5097 -55.4813 -55.4813 -28.3331 -28.3095 -28.3094 -28.2707
   -28.2704  -2.8664  -0.4587  -0.3903  -0.2863  -0.2323   0.1211   3.9694
     5.5604   6.4878  10.8953  12.4125  13.0275  14.5409

          k = 0.8571-0.2857-0.5714 (  4822 PWs)   bands (ev):

   -94.4475 -55.5097 -55.4813 -55.4813 -28.3333 -28.3094 -28.3093 -28.2707
   -28.2705  -2.8439  -0.3863  -0.3456  -0.2844  -0.2629   0.1021   3.5921
     5.7285   6.4827  11.0794  12.2740  13.2893  14.8184

          k =-0.1429-0.7143 1.0000 (  4843 PWs)   bands (ev):

   -94.4475 -55.5097 -55.4813 -55.4813 -28.3331 -28.3096 -28.3093 -28.2707
   -28.2703  -2.8272  -0.4278  -0.3620  -0.2986  -0.2323   0.1638   3.8428
     5.7058   5.9431  10.9814  11.3287  13.8317  15.4853

          k =-0.0000 0.5714 0.8571 (  4824 PWs)   bands (ev):

   -94.4475 -55.5097 -55.4813 -55.4813 -28.3332 -28.3095 -28.3093 -28.2707
   -28.2704  -2.8111  -0.4071  -0.3519  -0.2894  -0.2478   0.2118   3.6882
     5.3499   6.0963  11.3312  12.3265  13.4794  14.3380

     the Fermi energy is     8.3203 ev

!    total energy              =    -485.71424169 Ry
     estimated scf accuracy    <       0.00000010 Ry
     smearing contrib. (-TS)   =      -0.00039431 Ry
     internal energy E=F+TS    =    -485.71384738 Ry

     The total energy is F=E-TS. E is the sum of the following terms:
     one-electron contribution =    -319.32156562 Ry
     hartree contribution      =     161.13513500 Ry
     xc contribution           =     -46.23123152 Ry
     ewald contribution        =    -281.29618525 Ry

     convergence has been achieved in   4 iterations

     Forces acting on atoms (cartesian axes, Ry/au):

     atom    1 type  1   force =     0.02174304   -0.02174304   -0.02174304
     atom    2 type  2   force =    -0.02174304    0.02174304    0.02174304

     Total force =     0.053259     Total SCF correction =     0.001576


     Computing stress (Cartesian axis) and pressure

          total   stress  (Ry/bohr**3)                   (kbar)     P=        7.17
   0.00004872  -0.00010443  -0.00010443            7.17      -15.36      -15.36
  -0.00010443   0.00004872   0.00010443          -15.36        7.17       15.36
  -0.00010443   0.00010443   0.00004872          -15.36       15.36        7.17

     Energy error            =      1.1E-02 Ry
     Gradient error          =      2.2E-02 Ry/Bohr

     number of scf cycles    =   3
     number of bfgs steps    =   2

     energy             old  =    -485.7030661451 Ry
     energy             new  =    -485.7142416926 Ry

     CASE: energy            _new < energy            _old

     new trust radius        =       0.1056950432 bohr
     new conv_thr            =       0.0000021743 Ry


ATOMIC_POSITIONS (crystal)
Cd               0.0279354159        0.0279354159        0.0279354159
Te               0.2720645841        0.2720645841        0.2720645841



     Writing config-only to output data dir ./tmp/CdTe.save/ :
     XML data file
     NEW-OLD atomic charge density approx. for the potential

     total cpu time spent up to now is      144.2 secs

     Self-consistent Calculation

     iteration #  1     ecut=    70.00 Ry     beta= 0.70
     Davidson diagonalization with overlap
     ethr =  1.00E-06,  avg # of iterations =  8.4

     total cpu time spent up to now is      160.8 secs

     total energy              =    -485.71921249 Ry
     estimated scf accuracy    <       0.00024208 Ry

     iteration #  2     ecut=    70.00 Ry     beta= 0.70
     Davidson diagonalization with overlap
     ethr =  6.72E-07,  avg # of iterations =  2.0

     total cpu time spent up to now is      167.1 secs

     total energy              =    -485.71924177 Ry
     estimated scf accuracy    <       0.00001701 Ry

     iteration #  3     ecut=    70.00 Ry     beta= 0.70
     Davidson diagonalization with overlap
     ethr =  4.72E-08,  avg # of iterations =  2.0

     total cpu time spent up to now is      173.6 secs

     total energy              =    -485.71924590 Ry
     estimated scf accuracy    <       0.00000421 Ry

     iteration #  4     ecut=    70.00 Ry     beta= 0.70
     Davidson diagonalization with overlap
     ethr =  1.17E-08,  avg # of iterations =  2.0

     total cpu time spent up to now is      180.0 secs

     End of self-consistent calculation

          k = 0.0000 0.0000 0.0000 (  4909 PWs)   bands (ev):

   -94.4166 -55.4639 -55.4554 -55.4554 -28.3125 -28.3023 -28.3023 -28.2882
   -28.2882  -3.2160  -0.4790  -0.4331  -0.4331  -0.2274  -0.2274   7.5636
     7.6661   7.6661   8.2272  12.2744  12.2744  12.3618

          k =-0.1429 0.1429-0.1429 (  4828 PWs)   bands (ev):

   -94.4166 -55.4639 -55.4554 -55.4554 -28.3125 -28.3023 -28.3023 -28.2882
   -28.2881  -3.1518  -0.4651  -0.4237  -0.3789  -0.2282  -0.2269   6.2724
     7.4220   7.5249   9.2202  12.2599  12.4891  12.6177

          k =-0.2857 0.2857-0.2857 (  4828 PWs)   bands (ev):

   -94.4166 -55.4639 -55.4555 -55.4554 -28.3124 -28.3023 -28.3022 -28.2882
   -28.2880  -3.0077  -0.4374  -0.4060  -0.2323  -0.2221  -0.1965   4.7521
     7.1181   7.2486   9.4955  12.7453  12.9593  13.2377

          k =-0.4286 0.4286-0.4286 (  4844 PWs)   bands (ev):

   -94.4166 -55.4639 -55.4555 -55.4554 -28.3123 -28.3023 -28.3022 -28.2882
   -28.2879  -2.8939  -0.4185  -0.3957  -0.2251  -0.2138   0.0333   3.7452
     6.9060   7.0561   9.3865  12.7316  12.9983  14.4879

          k = 0.0000 0.2857 0.0000 (  4837 PWs)   bands (ev):

   -94.4166 -55.4639 -55.4554 -55.4554 -28.3125 -28.3023 -28.3022 -28.2882
   -28.2881  -3.1296  -0.4492  -0.4094  -0.3820  -0.2329  -0.2225   6.2013
     7.1982   7.2506   9.6832  11.6024  12.9358  12.9905

          k =-0.1429 0.4286-0.1429 (  4829 PWs)   bands (ev):

   -94.4166 -55.4639 -55.4554 -55.4554 -28.3124 -28.3023 -28.3022 -28.2882
   -28.2880  -3.0120  -0.4215  -0.3945  -0.2737  -0.2200  -0.2052   5.0744
     6.8406   6.9223  10.1889  11.6865  13.2785  13.5233

          k =-0.2857 0.5714-0.2857 (  4820 PWs)   bands (ev):

   -94.4166 -55.4640 -55.4555 -55.4554 -28.3124 -28.3023 -28.3021 -28.2881
   -28.2879  -2.8897  -0.4030  -0.3844  -0.2386  -0.2167   0.0052   4.0150
     6.4700   6.7091  10.1643  12.2832  13.5451  13.7567

          k = 0.5714-0.2857 0.5714 (  4823 PWs)   bands (ev):

   -94.4166 -55.4640 -55.4555 -55.4554 -28.3123 -28.3023 -28.3022 -28.2881
   -28.2879  -2.8536  -0.4029  -0.3825  -0.2287  -0.2189   0.1100   3.6976
     6.2296   6.7821  10.1321  12.4466  13.3524  14.5448

          k = 0.4286-0.1429 0.4286 (  4831 PWs)   bands (ev):

   -94.4166 -55.4639 -55.4555 -55.4554 -28.3123 -28.3023 -28.3022 -28.2881
   -28.2879  -2.9287  -0.4220  -0.3885  -0.2360  -0.2232  -0.0653   4.3510
     6.2951   7.0665  10.1821  12.6487  13.1378  13.3881

          k = 0.2857-0.0000 0.2857 (  4818 PWs)   bands (ev):

   -94.4166 -55.4639 -55.4554 -55.4554 -28.3124 -28.3023 -28.3023 -28.2882
   -28.2880  -3.0617  -0.4506  -0.4051  -0.2934  -0.2323  -0.2133   5.4565
     6.7764   7.3821   9.9131  12.1559  12.7306  13.1074

          k = 0.0000 0.5714 0.0000 (  4837 PWs)   bands (ev):

   -94.4166 -55.4640 -55.4554 -55.4554 -28.3124 -28.3023 -28.3021 -28.2882
   -28.2879  -2.9376  -0.3879  -0.3529  -0.2948  -0.2115  -0.1410   4.7497
     6.4885   6.5264  10.4789  10.9404  14.4099  14.4173

          k =-0.1429 0.7143-0.1429 (  4829 PWs)   bands (ev):

   -94.4166 -55.4640 -55.4555 -55.4554 -28.3124 -28.3023 -28.3020 -28.2882
   -28.2879  -2.8430  -0.3652  -0.3469  -0.2756  -0.2092   0.0408   4.0889
     6.0286   6.2894  10.4939  11.2931  14.0293  14.8609

          k = 0.7143-0.1429 0.7143 (  4837 PWs)   bands (ev):

   -94.4166 -55.4640 -55.4555 -55.4554 -28.3123 -28.3023 -28.3021 -28.2881
   -28.2879  -2.7995  -0.3674  -0.3556  -0.2503  -0.2170   0.1919   3.7770
     5.4966   6.3712  10.5574  12.3350  14.1784  14.5344

          k = 0.5714 0.0000 0.5714 (  4840 PWs)   bands (ev):

   -94.4166 -55.4640 -55.4555 -55.4554 -28.3123 -28.3023 -28.3022 -28.2880
   -28.2879  -2.8367  -0.3906  -0.3688  -0.2357  -0.2265   0.1180   3.9983
     5.4772   6.6970  10.6804  12.7526  13.6675  13.9134

          k = 0.0000 0.8571 0.0000 (  4812 PWs)   bands (ev):

   -94.4166 -55.4640 -55.4555 -55.4554 -28.3124 -28.3024 -28.3020 -28.2882
   -28.2878  -2.7897  -0.3383  -0.3057  -0.3040  -0.2026   0.1345   3.7704
     6.0262   6.0567  10.2764  10.5337  15.7698  16.0485

          k = 0.8571-0.0000 0.8571 (  4850 PWs)   bands (ev):

   -94.4166 -55.4640 -55.4555 -55.4554 -28.3124 -28.3024 -28.3020 -28.2882
   -28.2878  -2.7710  -0.3379  -0.3289  -0.2777  -0.2065   0.2129   3.6678
     5.6812   6.0602  10.3586  11.1100  15.4059  15.8565

          k =-0.2857 0.5714 0.0000 (  4817 PWs)   bands (ev):

   -94.4166 -55.4640 -55.4554 -55.4554 -28.3125 -28.3022 -28.3020 -28.2882
   -28.2880  -2.9018  -0.3786  -0.3645  -0.2605  -0.2191  -0.0684   4.3579
     6.0643   6.7647  10.7832  11.7237  13.1313  14.2623

          k = 0.5714-0.2857 0.8571 (  4822 PWs)   bands (ev):

   -94.4166 -55.4640 -55.4555 -55.4554 -28.3124 -28.3023 -28.3021 -28.2882
   -28.2879  -2.8220  -0.3751  -0.3571  -0.2456  -0.2211   0.1382   3.8371
     5.6325   6.4833  10.9154  12.3060  13.2319  14.7260

          k = 0.7143-0.1429 1.0000 (  4843 PWs)   bands (ev):

   -94.4166 -55.4640 -55.4555 -55.4554 -28.3124 -28.3023 -28.3020 -28.2882
   -28.2879  -2.7851  -0.3473  -0.3288  -0.2705  -0.2138   0.1858   3.7565
     5.6987   5.9872  11.0191  11.3024  13.9826  15.4549

          k = 0.5714 0.0000 0.8571 (  4824 PWs)   bands (ev):

   -94.4166 -55.4640 -55.4555 -55.4555 -28.3123 -28.3023 -28.3021 -28.2881
   -28.2879  -2.7795  -0.3603  -0.3435  -0.2498  -0.2224   0.2369   3.7751
     5.4121   5.9979  11.2009  12.3693  13.4899  14.3977

          k =-0.1429 0.1429 0.1429 (  4828 PWs)   bands (ev):

   -94.4166 -55.4639 -55.4554 -55.4554 -28.3125 -28.3022 -28.3022 -28.2882
   -28.2882  -3.1488  -0.4225  -0.4189  -0.4189  -0.2294  -0.2294   6.1723
     7.5030   7.5030   9.2601  12.3182  12.5391  12.5391

          k =-0.2857 0.2857 0.2857 (  4828 PWs)   bands (ev):

   -94.4166 -55.4640 -55.4554 -55.4554 -28.3126 -28.3021 -28.3021 -28.2882
   -28.2882  -2.9976  -0.3895  -0.3895  -0.2375  -0.2307  -0.2307   4.6182
     7.1865   7.1865   9.6063  12.8973  12.8973  13.2566

          k =-0.4286 0.4286 0.4286 (  4844 PWs)   bands (ev):

   -94.4166 -55.4640 -55.4554 -55.4554 -28.3126 -28.3020 -28.3020 -28.2882
   -28.2882  -2.8784  -0.3701  -0.3701  -0.2271  -0.2271   0.0109   3.5818
     6.9673   6.9673   9.5196  12.9276  12.9276  14.5586

          k =-0.4286-0.1429-0.1429 (  4829 PWs)   bands (ev):

   -94.4166 -55.4639 -55.4554 -55.4554 -28.3124 -28.3023 -28.3022 -28.2882
   -28.2879  -3.0138  -0.4364  -0.3894  -0.2781  -0.2153  -0.1991   5.1219
     6.7861   6.9348  10.2115  11.6813  13.3249  13.3923

          k =-0.1429 0.4286 0.1429 (  4829 PWs)   bands (ev):

   -94.4166 -55.4640 -55.4554 -55.4554 -28.3125 -28.3022 -28.3021 -28.2882
   -28.2881  -3.0070  -0.3986  -0.3779  -0.2907  -0.2214  -0.2183   4.9854
     6.8977   6.9020  10.2525  11.6692  13.3677  13.4988

          k =-0.5714-0.2857-0.2857 (  4820 PWs)   bands (ev):

   -94.4166 -55.4639 -55.4555 -55.4554 -28.3123 -28.3023 -28.3022 -28.2882
   -28.2878  -2.8907  -0.4143  -0.3771  -0.2477  -0.2102   0.0081   4.0458
     6.3675   6.7808  10.1852  12.4243  13.3692  13.6617

          k =-0.2857 0.5714 0.2857 (  4820 PWs)   bands (ev):

   -94.4166 -55.4640 -55.4554 -55.4554 -28.3125 -28.3021 -28.3020 -28.2882
   -28.2881  -2.8787  -0.3725  -0.3557  -0.2481  -0.2215  -0.0138   3.8768
     6.4812   6.7177  10.2667  12.3398  13.5351  13.7861

          k = 0.2857 0.5714 0.5714 (  4823 PWs)   bands (ev):

   -94.4166 -55.4640 -55.4555 -55.4554 -28.3123 -28.3022 -28.3022 -28.2882
   -28.2879  -2.8522  -0.4013  -0.3775  -0.2334  -0.2158   0.1094   3.6896
     6.1374   6.8694  10.1450  12.6146  13.1518  14.5318

          k = 0.5714-0.2857-0.5714 (  4823 PWs)   bands (ev):

   -94.4166 -55.4640 -55.4554 -55.4554 -28.3126 -28.3020 -28.3020 -28.2882
   -28.2881  -2.8401  -0.3639  -0.3555  -0.2349  -0.2278   0.0972   3.5328
     6.2277   6.8036  10.2352  12.5550  13.3183  14.6293

          k = 0.1429 0.4286 0.4286 (  4831 PWs)   bands (ev):

   -94.4166 -55.4640 -55.4555 -55.4554 -28.3124 -28.3023 -28.3021 -28.2882
   -28.2880  -2.9247  -0.4016  -0.3891  -0.2297  -0.2290  -0.0757   4.2958
     6.2382   7.1515  10.1922  12.8171  12.9590  13.4280

          k = 0.4286-0.1429-0.4286 (  4831 PWs)   bands (ev):

   -94.4166 -55.4640 -55.4554 -55.4554 -28.3125 -28.3021 -28.3020 -28.2882
   -28.2881  -2.9177  -0.3768  -0.3744  -0.2358  -0.2332  -0.0912   4.1984
     6.2969   7.1100  10.2663  12.7610  13.0741  13.4451

          k = 0.0000 0.2857 0.2857 (  4818 PWs)   bands (ev):

   -94.4166 -55.4640 -55.4554 -55.4554 -28.3125 -28.3022 -28.3022 -28.2882
   -28.2881  -3.0569  -0.4135  -0.4083  -0.3083  -0.2340  -0.2229   5.3524
     6.7735   7.4492   9.9388  12.2343  12.6528  13.1735

          k =-0.7143-0.1429-0.1429 (  4829 PWs)   bands (ev):

   -94.4166 -55.4640 -55.4555 -55.4554 -28.3124 -28.3023 -28.3021 -28.2882
   -28.2878  -2.8440  -0.3776  -0.3360  -0.2844  -0.2058   0.0436   4.1283
     5.9390   6.3356  10.5896  11.2332  14.0054  14.7276

          k =-0.1429 0.7143 0.1429 (  4829 PWs)   bands (ev):

   -94.4166 -55.4640 -55.4554 -55.4554 -28.3124 -28.3023 -28.3020 -28.2882
   -28.2879  -2.8389  -0.3575  -0.3252  -0.2839  -0.2119   0.0339   4.0221
     6.0301   6.3118  10.6107  11.1962  14.1046  14.8316

          k = 0.1429 0.7143 0.7143 (  4837 PWs)   bands (ev):

   -94.4166 -55.4640 -55.4555 -55.4554 -28.3124 -28.3022 -28.3021 -28.2882
   -28.2878  -2.7975  -0.3725  -0.3359  -0.2621  -0.2138   0.1923   3.7734
     5.4108   6.4264  10.6571  12.3501  14.1073  14.3749

          k = 0.7143-0.1429-0.7143 (  4837 PWs)   bands (ev):

   -94.4166 -55.4640 -55.4555 -55.4554 -28.3125 -28.3022 -28.3020 -28.2882
   -28.2880  -2.7923  -0.3561  -0.3246  -0.2618  -0.2204   0.1895   3.6660
     5.4937   6.4017  10.6806  12.2990  14.2520  14.4725

          k = 0.0000 0.5714 0.5714 (  4840 PWs)   bands (ev):

   -94.4166 -55.4640 -55.4555 -55.4554 -28.3124 -28.3021 -28.3021 -28.2882
   -28.2880  -2.8296  -0.3705  -0.3519  -0.2411  -0.2297   0.1122   3.8897
     5.4573   6.7521  10.7679  12.8059  13.7603  13.7716

          k = 0.0000 0.8571 0.8571 (  4850 PWs)   bands (ev):

   -94.4166 -55.4640 -55.4555 -55.4554 -28.3124 -28.3023 -28.3020 -28.2882
   -28.2878  -2.7696  -0.3434  -0.3037  -0.2923  -0.2066   0.2129   3.6540
     5.6377   6.0927  10.4867  11.0086  15.3832  15.7457

          k = 0.5714 0.2857 0.0000 (  4817 PWs)   bands (ev):

   -94.4166 -55.4639 -55.4555 -55.4554 -28.3123 -28.3023 -28.3022 -28.2882
   -28.2879  -2.9077  -0.4062  -0.3700  -0.2609  -0.2146  -0.0537   4.4627
     6.0711   6.6966  10.7740  11.7222  13.0255  14.2887

          k =-0.2857-0.5714 0.8571 (  4822 PWs)   bands (ev):

   -94.4166 -55.4640 -55.4555 -55.4554 -28.3123 -28.3023 -28.3021 -28.2881
   -28.2879  -2.8251  -0.3844  -0.3639  -0.2430  -0.2199   0.1398   3.8719
     5.7257   6.3804  10.9280  12.1764  13.2661  14.8160

          k = 0.2857 0.5714 0.8571 (  4822 PWs)   bands (ev):

   -94.4166 -55.4640 -55.4555 -55.4554 -28.3123 -28.3023 -28.3021 -28.2881
   -28.2879  -2.8245  -0.3868  -0.3571  -0.2501  -0.2160   0.1401   3.8829
     5.6363   6.4512  10.9265  12.3366  13.1375  14.6638

          k = 0.8571-0.2857-0.5714 (  4822 PWs)   bands (ev):

   -94.4166 -55.4640 -55.4554 -55.4554 -28.3125 -28.3021 -28.3020 -28.2882
   -28.2880  -2.8161  -0.3597  -0.3402  -0.2506  -0.2252   0.1332   3.7374
     5.6941   6.4580  10.9951  12.2791  13.2437  14.7777

          k =-0.1429-0.7143 1.0000 (  4843 PWs)   bands (ev):

   -94.4166 -55.4640 -55.4555 -55.4554 -28.3123 -28.3023 -28.3020 -28.2882
   -28.2878  -2.7876  -0.3568  -0.3329  -0.2713  -0.2104   0.1871   3.8062
     5.7144   5.9413  11.0248  11.3052  13.8906  15.4804

          k =-0.0000 0.5714 0.8571 (  4824 PWs)   bands (ev):

   -94.4166 -55.4640 -55.4555 -55.4554 -28.3124 -28.3022 -28.3020 -28.2882
   -28.2879  -2.7764  -0.3558  -0.3292  -0.2558  -0.2235   0.2373   3.7282
     5.3703   6.0513  11.2770  12.3625  13.4815  14.3524

     the Fermi energy is     8.2961 ev

!    total energy              =    -485.71924690 Ry
     estimated scf accuracy    <       0.00000012 Ry
     smearing contrib. (-TS)   =      -0.00037978 Ry
     internal energy E=F+TS    =    -485.71886712 Ry

     The total energy is F=E-TS. E is the sum of the following terms:
     one-electron contribution =    -318.72271244 Ry
     hartree contribution      =     160.85602722 Ry
     xc contribution           =     -46.22706962 Ry
     ewald contribution        =    -281.62511228 Ry

     convergence has been achieved in   4 iterations

     Forces acting on atoms (cartesian axes, Ry/au):

     atom    1 type  1   force =     0.00653914   -0.00653914   -0.00653914
     atom    2 type  2   force =    -0.00653914    0.00653914    0.00653914

     Total force =     0.016018     Total SCF correction =     0.000594


     Computing stress (Cartesian axis) and pressure

          total   stress  (Ry/bohr**3)                   (kbar)     P=        2.58
   0.00001753  -0.00003236  -0.00003236            2.58       -4.76       -4.76
  -0.00003236   0.00001753   0.00003236           -4.76        2.58        4.76
  -0.00003236   0.00003236   0.00001753           -4.76        4.76        2.58

     Energy error            =      5.0E-03 Ry
     Gradient error          =      6.5E-03 Ry/Bohr

     number of scf cycles    =   4
     number of bfgs steps    =   3

     energy             old  =    -485.7142416926 Ry
     energy             new  =    -485.7192469001 Ry

     CASE: energy            _new < energy            _old

     new trust radius        =       0.0454590601 bohr
     new conv_thr            =       0.0000006539 Ry


ATOMIC_POSITIONS (crystal)
Cd               0.0258357519        0.0258357519        0.0258357519
Te               0.2741642481        0.2741642481        0.2741642481



     Writing config-only to output data dir ./tmp/CdTe.save/ :
     XML data file
     NEW-OLD atomic charge density approx. for the potential

     total cpu time spent up to now is      183.3 secs

     Self-consistent Calculation

     iteration #  1     ecut=    70.00 Ry     beta= 0.70
     Davidson diagonalization with overlap
     ethr =  1.00E-06,  avg # of iterations =  6.3

     total cpu time spent up to now is      197.5 secs

     total energy              =    -485.71988706 Ry
     estimated scf accuracy    <       0.00004235 Ry

     iteration #  2     ecut=    70.00 Ry     beta= 0.70
     Davidson diagonalization with overlap
     ethr =  1.18E-07,  avg # of iterations =  2.0

     total cpu time spent up to now is      203.9 secs

     total energy              =    -485.71989284 Ry
     estimated scf accuracy    <       0.00000224 Ry

     iteration #  3     ecut=    70.00 Ry     beta= 0.70
     Davidson diagonalization with overlap
     ethr =  6.23E-09,  avg # of iterations =  2.1

     total cpu time spent up to now is      211.0 secs

     End of self-consistent calculation

          k = 0.0000 0.0000 0.0000 (  4909 PWs)   bands (ev):

   -94.4160 -55.4587 -55.4563 -55.4563 -28.3014 -28.2976 -28.2976 -28.2911
   -28.2911  -3.2098  -0.4553  -0.4416  -0.4416  -0.2261  -0.2261   7.6166
     7.6444   7.6444   8.2238  12.2918  12.2918  12.3142

          k =-0.1429 0.1429-0.1429 (  4828 PWs)   bands (ev):

   -94.4160 -55.4587 -55.4563 -55.4563 -28.3014 -28.2976 -28.2975 -28.2911
   -28.2911  -3.1451  -0.4422  -0.4305  -0.3868  -0.2269  -0.2265   6.2561
     7.4664   7.4952   9.2259  12.2729  12.5279  12.5614

          k =-0.2857 0.2857-0.2857 (  4828 PWs)   bands (ev):

   -94.4160 -55.4587 -55.4564 -55.4563 -28.3013 -28.2975 -28.2975 -28.2911
   -28.2910  -2.9998  -0.4171  -0.4083  -0.2262  -0.2240  -0.2061   4.7288
     7.1665   7.2036   9.5136  12.8294  12.8910  13.2361

          k =-0.4286 0.4286-0.4286 (  4844 PWs)   bands (ev):

   -94.4160 -55.4587 -55.4564 -55.4563 -28.3012 -28.2975 -28.2975 -28.2911
   -28.2909  -2.8852  -0.4007  -0.3942  -0.2206  -0.2176   0.0302   3.7159
     6.9577   7.0006   9.4088  12.8367  12.9125  14.5024

          k = 0.0000 0.2857 0.0000 (  4837 PWs)   bands (ev):

   -94.4160 -55.4587 -55.4563 -55.4563 -28.3014 -28.2976 -28.2975 -28.2911
   -28.2911  -3.1234  -0.4283  -0.4180  -0.3871  -0.2320  -0.2212   6.2051
     7.2171   7.2325   9.6831  11.6018  12.9519  12.9659

          k =-0.1429 0.4286-0.1429 (  4829 PWs)   bands (ev):

   -94.4160 -55.4587 -55.4563 -55.4563 -28.3013 -28.2976 -28.2974 -28.2911
   -28.2910  -3.0054  -0.4042  -0.3989  -0.2757  -0.2173  -0.2083   5.0682
     6.8705   6.8928  10.2041  11.6837  13.3064  13.4852

          k =-0.2857 0.5714-0.2857 (  4820 PWs)   bands (ev):

   -94.4160 -55.4587 -55.4564 -55.4563 -28.3013 -28.2975 -28.2974 -28.2911
   -28.2909  -2.8820  -0.3887  -0.3823  -0.2400  -0.2150   0.0028   3.9958
     6.4625   6.7155  10.1857  12.3236  13.5065  13.7434

          k = 0.5714-0.2857 0.5714 (  4823 PWs)   bands (ev):

   -94.4160 -55.4587 -55.4564 -55.4563 -28.3012 -28.2975 -28.2974 -28.2910
   -28.2909  -2.8451  -0.3857  -0.3805  -0.2266  -0.2207   0.1086   3.6663
     6.2177   6.7973  10.1521  12.5030  13.3017  14.5601

          k = 0.4286-0.1429 0.4286 (  4831 PWs)   bands (ev):

   -94.4160 -55.4587 -55.4564 -55.4563 -28.3012 -28.2976 -28.2975 -28.2911
   -28.2909  -2.9200  -0.4012  -0.3884  -0.2315  -0.2260  -0.0717   4.3140
     6.2890   7.0870  10.1980  12.7076  13.0885  13.4002

          k = 0.2857-0.0000 0.2857 (  4818 PWs)   bands (ev):

   -94.4160 -55.4587 -55.4563 -55.4563 -28.3013 -28.2976 -28.2975 -28.2911
   -28.2910  -3.0539  -0.4275  -0.4084  -0.2982  -0.2324  -0.2160   5.4202
     6.7799   7.4044   9.9211  12.1850  12.7087  13.1173

          k = 0.0000 0.5714 0.0000 (  4837 PWs)   bands (ev):

   -94.4160 -55.4587 -55.4564 -55.4563 -28.3013 -28.2976 -28.2973 -28.2912
   -28.2909  -2.9316  -0.3713  -0.3618  -0.2929  -0.2101  -0.1420   4.7523
     6.5009   6.5127  10.4861  10.9342  14.4281  14.4383

          k =-0.1429 0.7143-0.1429 (  4829 PWs)   bands (ev):

   -94.4160 -55.4587 -55.4564 -55.4563 -28.3013 -28.2976 -28.2973 -28.2911
   -28.2909  -2.8366  -0.3518  -0.3481  -0.2773  -0.2076   0.0406   4.0850
     6.0149   6.2985  10.5338  11.2658  14.0399  14.8265

          k = 0.7143-0.1429 0.7143 (  4837 PWs)   bands (ev):

   -94.4160 -55.4587 -55.4564 -55.4564 -28.3012 -28.2976 -28.2973 -28.2911
   -28.2909  -2.7921  -0.3585  -0.3475  -0.2527  -0.2158   0.1928   3.7565
     5.4826   6.3841  10.5986  12.3340  14.1804  14.4901

          k = 0.5714 0.0000 0.5714 (  4840 PWs)   bands (ev):

   -94.4160 -55.4587 -55.4564 -55.4563 -28.3012 -28.2975 -28.2974 -28.2910
   -28.2910  -2.8284  -0.3725  -0.3668  -0.2341  -0.2280   0.1167   3.9594
     5.4722   6.7147  10.7125  12.7746  13.7061  13.8537

          k = 0.0000 0.8571 0.0000 (  4812 PWs)   bands (ev):

   -94.4160 -55.4587 -55.4564 -55.4563 -28.3013 -28.2976 -28.2972 -28.2912
   -28.2908  -2.7839  -0.3225  -0.3131  -0.3040  -0.2012   0.1358   3.7717
     6.0352   6.0453  10.2940  10.5192  15.7761  16.0787

          k = 0.8571-0.0000 0.8571 (  4850 PWs)   bands (ev):

   -94.4160 -55.4587 -55.4564 -55.4563 -28.3013 -28.2976 -28.2972 -28.2912
   -28.2908  -2.7648  -0.3304  -0.3220  -0.2820  -0.2052   0.2145   3.6638
     5.6659   6.0694  10.4063  11.0754  15.3982  15.8152

          k =-0.2857 0.5714 0.0000 (  4817 PWs)   bands (ev):

   -94.4160 -55.4587 -55.4564 -55.4563 -28.3014 -28.2975 -28.2973 -28.2911
   -28.2910  -2.8980  -0.3774  -0.3701  -0.2591  -0.2160  -0.0633   4.3960
     6.0685   6.7389  10.7818  11.7237  13.0923  14.2694

          k = 0.5714-0.2857 0.8571 (  4822 PWs)   bands (ev):

   -94.4160 -55.4587 -55.4564 -55.4563 -28.3013 -28.2975 -28.2973 -28.2911
   -28.2909  -2.8161  -0.3671  -0.3574  -0.2450  -0.2195   0.1389   3.8335
     5.6621   6.4534  10.9347  12.2870  13.2210  14.7392

          k = 0.7143-0.1429 1.0000 (  4843 PWs)   bands (ev):

   -94.4160 -55.4587 -55.4564 -55.4563 -28.3013 -28.2975 -28.2972 -28.2912
   -28.2909  -2.7803  -0.3392  -0.3338  -0.2703  -0.2111   0.1877   3.7750
     5.7059   5.9677  11.0305  11.2977  13.9486  15.4642

          k = 0.5714 0.0000 0.8571 (  4824 PWs)   bands (ev):

   -94.4160 -55.4587 -55.4564 -55.4564 -28.3012 -28.2976 -28.2973 -28.2911
   -28.2909  -2.7727  -0.3501  -0.3398  -0.2505  -0.2216   0.2386   3.7586
     5.3986   6.0144  11.2300  12.3719  13.4843  14.3793

          k =-0.1429 0.1429 0.1429 (  4828 PWs)   bands (ev):

   -94.4160 -55.4587 -55.4563 -55.4563 -28.3014 -28.2975 -28.2975 -28.2911
   -28.2911  -3.1442  -0.4291  -0.4291  -0.3992  -0.2272  -0.2272   6.2275
     7.4889   7.4889   9.2385  12.2863  12.5422  12.5422

          k =-0.2857 0.2857 0.2857 (  4828 PWs)   bands (ev):

   -94.4160 -55.4587 -55.4563 -55.4563 -28.3014 -28.2974 -28.2974 -28.2911
   -28.2911  -2.9969  -0.4037  -0.4037  -0.2263  -0.2263  -0.2170   4.6901
     7.1860   7.1860   9.5461  12.8730  12.8730  13.2420

          k =-0.4286 0.4286 0.4286 (  4844 PWs)   bands (ev):

   -94.4160 -55.4588 -55.4563 -55.4563 -28.3015 -28.2973 -28.2973 -28.2911
   -28.2911  -2.8808  -0.3872  -0.3872  -0.2212  -0.2212   0.0241   3.6687
     6.9754   6.9754   9.4474  12.8929  12.8929  14.5223

          k =-0.4286-0.1429-0.1429 (  4829 PWs)   bands (ev):

   -94.4160 -55.4587 -55.4564 -55.4563 -28.3013 -28.2976 -28.2974 -28.2911
   -28.2910  -3.0059  -0.4125  -0.3938  -0.2766  -0.2162  -0.2062   5.0814
     6.8474   6.9044  10.2105  11.6819  13.3170  13.4509

          k =-0.1429 0.4286 0.1429 (  4829 PWs)   bands (ev):

   -94.4160 -55.4587 -55.4563 -55.4563 -28.3014 -28.2975 -28.2974 -28.2912
   -28.2910  -3.0039  -0.4011  -0.3907  -0.2807  -0.2178  -0.2118   5.0424
     6.8803   6.8938  10.2231  11.6775  13.3299  13.4814

          k =-0.5714-0.2857-0.2857 (  4820 PWs)   bands (ev):

   -94.4160 -55.4587 -55.4564 -55.4563 -28.3012 -28.2976 -28.2974 -28.2911
   -28.2909  -2.8823  -0.3946  -0.3776  -0.2426  -0.2132   0.0037   4.0044
     6.4300   6.7394  10.1919  12.3615  13.4577  13.7169

          k =-0.2857 0.5714 0.2857 (  4820 PWs)   bands (ev):

   -94.4160 -55.4587 -55.4563 -55.4563 -28.3014 -28.2974 -28.2973 -28.2911
   -28.2911  -2.8788  -0.3828  -0.3717  -0.2427  -0.2162  -0.0024   3.9557
     6.4629   6.7215  10.2154  12.3379  13.5054  13.7523

          k = 0.2857 0.5714 0.5714 (  4823 PWs)   bands (ev):

   -94.4160 -55.4587 -55.4564 -55.4563 -28.3012 -28.2975 -28.2974 -28.2911
   -28.2909  -2.8447  -0.3868  -0.3775  -0.2287  -0.2191   0.1084   3.6640
     6.1895   6.8242  10.1560  12.5482  13.2471  14.5562

          k = 0.5714-0.2857-0.5714 (  4823 PWs)   bands (ev):

   -94.4160 -55.4588 -55.4563 -55.4563 -28.3014 -28.2973 -28.2973 -28.2911
   -28.2911  -2.8412  -0.3763  -0.3714  -0.2290  -0.2222   0.1051   3.6187
     6.2158   6.8055  10.1819  12.5315  13.2950  14.5838

          k = 0.1429 0.4286 0.4286 (  4831 PWs)   bands (ev):

   -94.4160 -55.4587 -55.4564 -55.4563 -28.3013 -28.2975 -28.2975 -28.2911
   -28.2910  -2.9189  -0.3927  -0.3911  -0.2302  -0.2272  -0.0749   4.2985
     6.2713   7.1126  10.2013  12.7521  13.0390  13.4134

          k = 0.4286-0.1429-0.4286 (  4831 PWs)   bands (ev):

   -94.4160 -55.4587 -55.4563 -55.4563 -28.3014 -28.2974 -28.2973 -28.2911
   -28.2911  -2.9169  -0.3893  -0.3835  -0.2320  -0.2282  -0.0790   4.2701
     6.2886   7.1008  10.2227  12.7364  13.0722  13.4179

          k = 0.0000 0.2857 0.2857 (  4818 PWs)   bands (ev):

   -94.4160 -55.4587 -55.4563 -55.4563 -28.3014 -28.2975 -28.2975 -28.2911
   -28.2911  -3.0525  -0.4166  -0.4084  -0.3040  -0.2327  -0.2187   5.3908
     6.7774   7.4245   9.9295  12.2057  12.6842  13.1400

          k =-0.7143-0.1429-0.1429 (  4829 PWs)   bands (ev):

   -94.4160 -55.4587 -55.4564 -55.4563 -28.3013 -28.2976 -28.2973 -28.2912
   -28.2908  -2.8369  -0.3595  -0.3409  -0.2797  -0.2067   0.0414   4.0962
     5.9877   6.3135  10.5611  11.2488  14.0317  14.7899

          k =-0.1429 0.7143 0.1429 (  4829 PWs)   bands (ev):

   -94.4160 -55.4587 -55.4564 -55.4563 -28.3013 -28.2975 -28.2972 -28.2912
   -28.2909  -2.8354  -0.3537  -0.3379  -0.2796  -0.2083   0.0386   4.0657
     6.0138   6.3067  10.5670  11.2381  14.0608  14.8199

          k = 0.1429 0.7143 0.7143 (  4837 PWs)   bands (ev):

   -94.4160 -55.4587 -55.4564 -55.4563 -28.3013 -28.2976 -28.2973 -28.2911
   -28.2909  -2.7915  -0.3616  -0.3402  -0.2560  -0.2149   0.1930   3.7555
     5.4567   6.4014  10.6269  12.3382  14.1588  14.4458

          k = 0.7143-0.1429-0.7143 (  4837 PWs)   bands (ev):

   -94.4160 -55.4587 -55.4564 -55.4563 -28.3013 -28.2975 -28.2972 -28.2912
   -28.2909  -2.7901  -0.3571  -0.3372  -0.2558  -0.2166   0.1922   3.7244
     5.4807   6.3943  10.6335  12.3235  14.2009  14.4741

          k = 0.0000 0.5714 0.5714 (  4840 PWs)   bands (ev):

   -94.4160 -55.4587 -55.4564 -55.4563 -28.3013 -28.2974 -28.2973 -28.2911
   -28.2910  -2.8263  -0.3688  -0.3600  -0.2361  -0.2284   0.1151   3.9285
[...]
     5.6799   6.4466  10.9574  12.2788  13.2248  14.7547

          k =-0.1429-0.7143 1.0000 (  4843 PWs)   bands (ev):

   -94.4160 -55.4587 -55.4564 -55.4563 -28.3012 -28.2976 -28.2972 -28.2911
   -28.2908  -2.7810  -0.3422  -0.3348  -0.2705  -0.2103   0.1880   3.7892
     5.7118   5.9532  11.0312  11.2996  13.9217  15.4726

          k =-0.0000 0.5714 0.8571 (  4824 PWs)   bands (ev):

   -94.4160 -55.4587 -55.4564 -55.4563 -28.3013 -28.2975 -28.2972 -28.2911
   -28.2909  -2.7718  -0.3501  -0.3344  -0.2522  -0.2219   0.2387   3.7453
     5.3853   6.0311  11.2515  12.3699  13.4829  14.3656

     the Fermi energy is     8.2929 ev

!    total energy              =    -485.71989322 Ry
     estimated scf accuracy    <       0.00000040 Ry
     smearing contrib. (-TS)   =      -0.00037823 Ry
     internal energy E=F+TS    =    -485.71951499 Ry

     The total energy is F=E-TS. E is the sum of the following terms:
     one-electron contribution =    -318.64432598 Ry
     hartree contribution      =     160.82041441 Ry
     xc contribution           =     -46.22658902 Ry
     ewald contribution        =    -281.66901440 Ry

     convergence has been achieved in   3 iterations

     Forces acting on atoms (cartesian axes, Ry/au):

     atom    1 type  1   force =     0.00177946   -0.00177946   -0.00177946
     atom    2 type  2   force =    -0.00177946    0.00177946    0.00177946

     Total force =     0.004359     Total SCF correction =     0.003609
     SCF correction compared to forces is large: reduce conv_thr to get better values


     Computing stress (Cartesian axis) and pressure

          total   stress  (Ry/bohr**3)                   (kbar)     P=        2.20
   0.00001496  -0.00000819  -0.00000819            2.20       -1.21       -1.21
  -0.00000819   0.00001496   0.00000819           -1.21        2.20        1.21
  -0.00000819   0.00000819   0.00001496           -1.21        1.21        2.20

     Energy error            =      6.5E-04 Ry
     Gradient error          =      1.8E-03 Ry/Bohr

     number of scf cycles    =   5
     number of bfgs steps    =   4

     energy             old  =    -485.7192469001 Ry
     energy             new  =    -485.7198932208 Ry

     CASE: energy            _new < energy            _old

     new trust radius        =       0.0169953651 bohr
     new conv_thr            =       0.0000001779 Ry


ATOMIC_POSITIONS (crystal)
Cd               0.0250507696        0.0250507696        0.0250507696
Te               0.2749492304        0.2749492304        0.2749492304



     Writing config-only to output data dir ./tmp/CdTe.save/ :
     XML data file
     NEW-OLD atomic charge density approx. for the potential

     total cpu time spent up to now is      214.4 secs

     Self-consistent Calculation

     iteration #  1     ecut=    70.00 Ry     beta= 0.70
     Davidson diagonalization with overlap
     ethr =  1.00E-06,  avg # of iterations =  4.0

     Threshold (ethr) on eigenvalues was too large:
     Diagonalizing with lowered threshold

     Davidson diagonalization with overlap
     ethr =  1.59E-08,  avg # of iterations =  4.0

     total cpu time spent up to now is      233.6 secs

     total energy              =    -485.71994641 Ry
     estimated scf accuracy    <       0.00000620 Ry

     iteration #  2     ecut=    70.00 Ry     beta= 0.70
     Davidson diagonalization with overlap
     ethr =  1.72E-08,  avg # of iterations =  2.0

     total cpu time spent up to now is      239.7 secs

     total energy              =    -485.71994713 Ry
     estimated scf accuracy    <       0.00000037 Ry

     iteration #  3     ecut=    70.00 Ry     beta= 0.70
     Davidson diagonalization with overlap
     ethr =  1.01E-09,  avg # of iterations =  2.0

     total cpu time spent up to now is      246.4 secs

     End of self-consistent calculation

          k = 0.0000 0.0000 0.0000 (  4909 PWs)   bands (ev):

   -94.4117 -55.4533 -55.4532 -55.4532 -28.3017 -28.3015 -28.3015 -28.2949
   -28.2949  -3.2107  -0.4439  -0.4431  -0.4431  -0.2232  -0.2232   7.6333
     7.6349   7.6349   8.2236  12.2987  12.2987  12.3000

          k =-0.1429 0.1429-0.1429 (  4828 PWs)   bands (ev):

   -94.4117 -55.4533 -55.4532 -55.4532 -28.3016 -28.3015 -28.3014 -28.2948
   -28.2948  -3.1458  -0.4319  -0.4313  -0.3873  -0.2239  -0.2239   6.2491
     7.4811   7.4827   9.2286  12.2764  12.5428  12.5447

          k =-0.2857 0.2857-0.2857 (  4828 PWs)   bands (ev):

   -94.4117 -55.4533 -55.4532 -55.4532 -28.3016 -28.3015 -28.3014 -28.2948
   -28.2948  -3.0000  -0.4078  -0.4074  -0.2223  -0.2222  -0.2066   4.7194
     7.1834   7.1856   9.5212  12.8615  12.8651  13.2368

          k =-0.4286 0.4286-0.4286 (  4844 PWs)   bands (ev):

   -94.4117 -55.4533 -55.4532 -55.4532 -28.3016 -28.3014 -28.3013 -28.2948
   -28.2948  -2.8849  -0.3922  -0.3919  -0.2167  -0.2166   0.0312   3.7046
     6.9761   6.9787   9.4180  12.8767  12.8811  14.5068

          k = 0.0000 0.2857 0.0000 (  4837 PWs)   bands (ev):

   -94.4117 -55.4533 -55.4532 -55.4532 -28.3017 -28.3015 -28.3014 -28.2949
   -28.2948  -3.1243  -0.4200  -0.4195  -0.3854  -0.2291  -0.2182   6.2050
     7.2235   7.2244   9.6828  11.6020  12.9582  12.9590

          k =-0.1429 0.4286-0.1429 (  4829 PWs)   bands (ev):

   -94.4117 -55.4533 -55.4532 -55.4532 -28.3017 -28.3014 -28.3013 -28.2949
   -28.2948  -3.0060  -0.4011  -0.3941  -0.2743  -0.2141  -0.2062   5.0651
     6.8711   6.8905  10.2099  11.6820  13.3147  13.4753

          k =-0.2857 0.5714-0.2857 (  4820 PWs)   bands (ev):

   -94.4117 -55.4533 -55.4532 -55.4532 -28.3016 -28.3014 -28.3013 -28.2948
   -28.2947  -2.8821  -0.3852  -0.3762  -0.2383  -0.2119   0.0042   3.9882
     6.4549   6.7211  10.1941  12.3363  13.4944  13.7388

          k = 0.5714-0.2857 0.5714 (  4823 PWs)   bands (ev):

   -94.4117 -55.4533 -55.4532 -55.4532 -28.3016 -28.3014 -28.3013 -28.2948
   -28.2947  -2.8448  -0.3795  -0.3759  -0.2245  -0.2179   0.1102   3.6543
     6.2103   6.8044  10.1600  12.5210  13.2866  14.5646

          k = 0.4286-0.1429 0.4286 (  4831 PWs)   bands (ev):

   -94.4117 -55.4533 -55.4532 -55.4532 -28.3015 -28.3015 -28.3013 -28.2948
   -28.2948  -2.9198  -0.3927  -0.3856  -0.2282  -0.2241  -0.0717   4.2998
     6.2843   7.0952  10.2045  12.7257  13.0724  13.4068

          k = 0.2857-0.0000 0.2857 (  4818 PWs)   bands (ev):

   -94.4117 -55.4533 -55.4532 -55.4532 -28.3016 -28.3015 -28.3014 -28.2948
   -28.2948  -3.0541  -0.4184  -0.4062  -0.2984  -0.2297  -0.2144   5.4061
     6.7783   7.4128   9.9248  12.1948  12.6977  13.1270

          k = 0.0000 0.5714 0.0000 (  4837 PWs)   bands (ev):

   -94.4117 -55.4533 -55.4532 -55.4532 -28.3018 -28.3013 -28.3012 -28.2949
   -28.2947  -2.9324  -0.3637  -0.3632  -0.2901  -0.2072  -0.1396   4.7523
     6.5055   6.5063  10.4867  10.9336  14.4351  14.4401

          k =-0.1429 0.7143-0.1429 (  4829 PWs)   bands (ev):

   -94.4117 -55.4533 -55.4532 -55.4532 -28.3018 -28.3013 -28.3012 -28.2949
   -28.2946  -2.8371  -0.3507  -0.3412  -0.2755  -0.2046   0.0427   4.0831
     6.0077   6.3029  10.5483  11.2552  14.0428  14.8158

          k = 0.7143-0.1429 0.7143 (  4837 PWs)   bands (ev):

   -94.4117 -55.4533 -55.4532 -55.4532 -28.3017 -28.3013 -28.3012 -28.2948
   -28.2947  -2.7922  -0.3558  -0.3405  -0.2513  -0.2128   0.1951   3.7486
     5.4755   6.3896  10.6137  12.3325  14.1801  14.4755

          k = 0.5714 0.0000 0.5714 (  4840 PWs)   bands (ev):

   -94.4117 -55.4533 -55.4532 -55.4532 -28.3015 -28.3014 -28.3013 -28.2948
   -28.2947  -2.8282  -0.3666  -0.3618  -0.2320  -0.2254   0.1183   3.9448
     5.4684   6.7216  10.7245  12.7813  13.7182  13.8352

          k = 0.0000 0.8571 0.0000 (  4812 PWs)   bands (ev):

   -94.4117 -55.4533 -55.4532 -55.4532 -28.3019 -28.3012 -28.3011 -28.2949
   -28.2946  -2.7847  -0.3150  -0.3145  -0.3011  -0.1983   0.1382   3.7719
     6.0390   6.0396  10.2958  10.5179  15.7762  16.0899

          k = 0.8571-0.0000 0.8571 (  4850 PWs)   bands (ev):

   -94.4117 -55.4533 -55.4532 -55.4532 -28.3019 -28.3012 -28.3011 -28.2949
   -28.2946  -2.7653  -0.3291  -0.3145  -0.2811  -0.2022   0.2169   3.6620
     5.6585   6.0735  10.4235  11.0620  15.3949  15.8003

          k =-0.2857 0.5714 0.0000 (  4817 PWs)   bands (ev):

   -94.4117 -55.4533 -55.4532 -55.4532 -28.3017 -28.3013 -28.3012 -28.2949
   -28.2947  -2.8996  -0.3774  -0.3686  -0.2561  -0.2125  -0.0589   4.4100
     6.0696   6.7282  10.7800  11.7244  13.0775  14.2726

          k = 0.5714-0.2857 0.8571 (  4822 PWs)   bands (ev):

   -94.4117 -55.4533 -55.4532 -55.4532 -28.3016 -28.3014 -28.3012 -28.2948
   -28.2947  -2.8169  -0.3640  -0.3542  -0.2425  -0.2164   0.1413   3.8319
     5.6727   6.4415  10.9414  12.2786  13.2175  14.7444

          k = 0.7143-0.1429 1.0000 (  4843 PWs)   bands (ev):

   -94.4117 -55.4533 -55.4532 -55.4532 -28.3018 -28.3013 -28.3011 -28.2949
   -28.2946  -2.7813  -0.3357  -0.3330  -0.2676  -0.2077   0.1902   3.7817
     5.7082   5.9598  11.0315  11.2981  13.9356  15.4681

          k = 0.5714 0.0000 0.8571 (  4824 PWs)   bands (ev):

   -94.4117 -55.4533 -55.4532 -55.4532 -28.3016 -28.3014 -28.3011 -28.2948
   -28.2947  -2.7730  -0.3467  -0.3346  -0.2484  -0.2188   0.2410   3.7524
     5.3918   6.0213  11.2402  12.3711  13.4834  14.3725

          k =-0.1429 0.1429 0.1429 (  4828 PWs)   bands (ev):

   -94.4117 -55.4533 -55.4532 -55.4532 -28.3017 -28.3014 -28.3014 -28.2948
   -28.2948  -3.1457  -0.4312  -0.4312  -0.3879  -0.2239  -0.2239   6.2474
     7.4824   7.4824   9.2293  12.2771  12.5437  12.5437

          k =-0.2857 0.2857 0.2857 (  4828 PWs)   bands (ev):

   -94.4117 -55.4533 -55.4532 -55.4532 -28.3017 -28.3013 -28.3013 -28.2948
   -28.2948  -2.9998  -0.4071  -0.4071  -0.2223  -0.2223  -0.2071   4.7172
     7.1845   7.1845   9.5230  12.8641  12.8641  13.2373

          k =-0.4286 0.4286 0.4286 (  4844 PWs)   bands (ev):

   -94.4117 -55.4534 -55.4532 -55.4532 -28.3017 -28.3013 -28.3013 -28.2948
   -28.2948  -2.8847  -0.3915  -0.3915  -0.2167  -0.2167   0.0309   3.7018
     6.9772   6.9772   9.4201  12.8800  12.8800  14.5080

          k =-0.4286-0.1429-0.1429 (  4829 PWs)   bands (ev):

   -94.4117 -55.4533 -55.4532 -55.4532 -28.3016 -28.3015 -28.3013 -28.2949
   -28.2947  -3.0060  -0.4016  -0.3937  -0.2744  -0.2141  -0.2060   5.0658
     6.8693   6.8917  10.2103  11.6819  13.3153  13.4734

          k =-0.1429 0.4286 0.1429 (  4829 PWs)   bands (ev):

   -94.4117 -55.4533 -55.4532 -55.4532 -28.3017 -28.3014 -28.3013 -28.2949
   -28.2948  -3.0059  -0.4010  -0.3935  -0.2746  -0.2142  -0.2063   5.0636
     6.8712   6.8910  10.2110  11.6816  13.3161  13.4752

          k =-0.5714-0.2857-0.2857 (  4820 PWs)   bands (ev):

   -94.4117 -55.4533 -55.4532 -55.4532 -28.3016 -28.3015 -28.3012 -28.2948
   -28.2947  -2.8821  -0.3855  -0.3759  -0.2384  -0.2118   0.0042   3.9887
     6.4529   6.7226  10.1944  12.3386  13.4916  13.7373

          k =-0.2857 0.5714 0.2857 (  4820 PWs)   bands (ev):

   -94.4117 -55.4534 -55.4532 -55.4532 -28.3017 -28.3013 -28.3012 -28.2948
   -28.2947  -2.8819  -0.3849  -0.3756  -0.2384  -0.2119   0.0040   3.9858
     6.4548   6.7215  10.1957  12.3371  13.4943  13.7395

          k = 0.2857 0.5714 0.5714 (  4823 PWs)   bands (ev):

   -94.4117 -55.4533 -55.4532 -55.4532 -28.3016 -28.3015 -28.3012 -28.2948
   -28.2947  -2.8448  -0.3796  -0.3757  -0.2246  -0.2178   0.1102   3.6542
     6.2086   6.8061  10.1602  12.5236  13.2835  14.5643

          k = 0.5714-0.2857-0.5714 (  4823 PWs)   bands (ev):

   -94.4117 -55.4534 -55.4532 -55.4532 -28.3017 -28.3013 -28.3012 -28.2948
   -28.2948  -2.8446  -0.3791  -0.3753  -0.2246  -0.2179   0.1100   3.6515
     6.2102   6.8049  10.1616  12.5225  13.2863  14.5661

          k = 0.1429 0.4286 0.4286 (  4831 PWs)   bands (ev):

   -94.4117 -55.4533 -55.4532 -55.4532 -28.3016 -28.3014 -28.3013 -28.2948
   -28.2948  -2.9198  -0.3923  -0.3856  -0.2281  -0.2241  -0.0719   4.2989
     6.2833   7.0967  10.2046  12.7282  13.0696  13.4076

          k = 0.4286-0.1429-0.4286 (  4831 PWs)   bands (ev):

   -94.4117 -55.4533 -55.4532 -55.4532 -28.3017 -28.3013 -28.3013 -28.2948
   -28.2948  -2.9196  -0.3921  -0.3852  -0.2282  -0.2242  -0.0721   4.2973
     6.2843   7.0960  10.2058  12.7273  13.0715  13.4080

          k = 0.0000 0.2857 0.2857 (  4818 PWs)   bands (ev):

   -94.4117 -55.4533 -55.4532 -55.4532 -28.3017 -28.3014 -28.3014 -28.2948
   -28.2948  -3.0540  -0.4180  -0.4061  -0.2987  -0.2297  -0.2145   5.4044
     6.7781   7.4140   9.9252  12.1960  12.6962  13.1284

          k =-0.7143-0.1429-0.1429 (  4829 PWs)   bands (ev):

   -94.4117 -55.4533 -55.4532 -55.4532 -28.3018 -28.3013 -28.3011 -28.2949
   -28.2946  -2.8371  -0.3511  -0.3408  -0.2757  -0.2045   0.0428   4.0838
     6.0060   6.3038  10.5497  11.2543  14.0423  14.8137

          k =-0.1429 0.7143 0.1429 (  4829 PWs)   bands (ev):

   -94.4117 -55.4533 -55.4532 -55.4532 -28.3018 -28.3013 -28.3011 -28.2949
   -28.2946  -2.8371  -0.3508  -0.3407  -0.2757  -0.2046   0.0426   4.0820
     6.0075   6.3034  10.5501  11.2537  14.0439  14.8155

          k = 0.1429 0.7143 0.7143 (  4837 PWs)   bands (ev):

   -94.4117 -55.4533 -55.4532 -55.4532 -28.3017 -28.3014 -28.3011 -28.2949
   -28.2947  -2.7922  -0.3560  -0.3401  -0.2515  -0.2128   0.1951   3.7485
     5.4740   6.3906  10.6152  12.3328  14.1788  14.4729

          k = 0.7143-0.1429-0.7143 (  4837 PWs)   bands (ev):

   -94.4117 -55.4534 -55.4532 -55.4532 -28.3017 -28.3013 -28.3011 -28.2949
   -28.2947  -2.7921  -0.3557  -0.3399  -0.2514  -0.2129   0.1951   3.7467
     5.4754   6.3902  10.6156  12.3319  14.1813  14.4746

          k = 0.0000 0.5714 0.5714 (  4840 PWs)   bands (ev):

   -94.4117 -55.4533 -55.4532 -55.4532 -28.3016 -28.3014 -28.3012 -28.2948
   -28.2947  -2.8280  -0.3665  -0.3613  -0.2321  -0.2254   0.1183   3.9430
     5.4680   6.7227  10.7258  12.7821  13.7197  13.8331

          k = 0.0000 0.8571 0.8571 (  4850 PWs)   bands (ev):

   -94.4117 -55.4533 -55.4532 -55.4532 -28.3019 -28.3012 -28.3011 -28.2949
   -28.2946  -2.7653  -0.3293  -0.3140  -0.2813  -0.2022   0.2169   3.6618
     5.6577   6.0742  10.4255  11.0604  15.3946  15.7978

          k = 0.5714 0.2857 0.0000 (  4817 PWs)   bands (ev):

   -94.4117 -55.4533 -55.4532 -55.4532 -28.3017 -28.3014 -28.3013 -28.2949
   -28.2947  -2.8997  -0.3778  -0.3687  -0.2561  -0.2125  -0.0586   4.4117
     6.0698   6.7269  10.7798  11.7245  13.0757  14.2730

          k =-0.2857-0.5714 0.8571 (  4822 PWs)   bands (ev):

   -94.4117 -55.4533 -55.4532 -55.4532 -28.3016 -28.3014 -28.3012 -28.2948
   -28.2947  -2.8169  -0.3641  -0.3544  -0.2424  -0.2164   0.1413   3.8325
     5.6743   6.4397  10.9417  12.2765  13.2181  14.7458

          k = 0.2857 0.5714 0.8571 (  4822 PWs)   bands (ev):

   -94.4117 -55.4533 -55.4532 -55.4532 -28.3016 -28.3014 -28.3012 -28.2948
   -28.2947  -2.8169  -0.3643  -0.3542  -0.2425  -0.2163   0.1413   3.8327
     5.6728   6.4409  10.9416  12.2791  13.2159  14.7434

          k = 0.8571-0.2857-0.5714 (  4822 PWs)   bands (ev):

   -94.4117 -55.4534 -55.4532 -55.4532 -28.3017 -28.3014 -28.3012 -28.2948
   -28.2947  -2.8168  -0.3639  -0.3539  -0.2425  -0.2165   0.1412   3.8302
     5.6737   6.4411  10.9427  12.2781  13.2178  14.7453

          k =-0.1429-0.7143 1.0000 (  4843 PWs)   bands (ev):

   -94.4117 -55.4533 -55.4532 -55.4532 -28.3018 -28.3013 -28.3011 -28.2949
   -28.2946  -2.7814  -0.3359  -0.3330  -0.2676  -0.2077   0.1902   3.7825
     5.7086   5.9589  11.0315  11.2983  13.9341  15.4685

          k =-0.0000 0.5714 0.8571 (  4824 PWs)   bands (ev):

   -94.4117 -55.4533 -55.4532 -55.4532 -28.3016 -28.3014 -28.3011 -28.2948
   -28.2947  -2.7729  -0.3467  -0.3343  -0.2485  -0.2189   0.2410   3.7516
     5.3909   6.0223  11.2414  12.3710  13.4834  14.3717

     the Fermi energy is     8.2919 ev

!    total energy              =    -485.71994719 Ry
     estimated scf accuracy    <       0.00000008 Ry
     smearing contrib. (-TS)   =      -0.00037750 Ry
     internal energy E=F+TS    =    -485.71956969 Ry

     The total energy is F=E-TS. E is the sum of the following terms:
     one-electron contribution =    -318.63575543 Ry
     hartree contribution      =     160.81529696 Ry
     xc contribution           =     -46.22644118 Ry
     ewald contribution        =    -281.67267003 Ry

     convergence has been achieved in   3 iterations

     Forces acting on atoms (cartesian axes, Ry/au):

     atom    1 type  1   force =     0.00003966   -0.00003966   -0.00003966
     atom    2 type  2   force =    -0.00003966    0.00003966    0.00003966

     Total force =     0.000097     Total SCF correction =     0.000701
     SCF correction compared to forces is large: reduce conv_thr to get better values


     Computing stress (Cartesian axis) and pressure

          total   stress  (Ry/bohr**3)                   (kbar)     P=        1.84
   0.00001248  -0.00000080  -0.00000080            1.84       -0.12       -0.12
  -0.00000080   0.00001248   0.00000080           -0.12        1.84        0.12
  -0.00000080   0.00000080   0.00001248           -0.12        0.12        1.84

     Energy error            =      5.4E-05 Ry
     Gradient error          =      4.0E-05 Ry/Bohr

     bfgs converged in   6 scf cycles and   5 bfgs steps
     (criteria: energy <  1.0E-04 Ry, force <  1.0E-03 Ry/Bohr)

     End of BFGS Geometry Optimization

     Final energy             =    -485.7199471857 Ry

     File ./tmp/CdTe.bfgs deleted, as requested
Begin final coordinates

ATOMIC_POSITIONS (crystal)
Cd               0.0250507696        0.0250507696        0.0250507696
Te               0.2749492304        0.2749492304        0.2749492304
End final coordinates



     Writing all to output data dir ./tmp/CdTe.save/ :
     XML data file, charge density, pseudopotentials, collected wavefunctions

     init_run     :      2.51s CPU      2.72s WALL (       1 calls)
     electrons    :    223.34s CPU    226.66s WALL (       6 calls)
     update_pot   :      0.17s CPU      0.20s WALL (       5 calls)
     forces       :      4.18s CPU      4.21s WALL (       6 calls)
     stress       :     15.78s CPU     15.90s WALL (       6 calls)

     Called by init_run:
     wfcinit      :      2.27s CPU      2.44s WALL (       1 calls)
     potinit      :      0.10s CPU      0.13s WALL (       1 calls)
     hinit0       :      0.09s CPU      0.09s WALL (       1 calls)

     Called by electrons:
     c_bands      :    203.93s CPU    206.80s WALL (      25 calls)
     sum_band     :     18.61s CPU     19.01s WALL (      25 calls)
     v_of_rho     :      0.90s CPU      0.98s WALL (      29 calls)
     mix_rho      :      0.06s CPU      0.07s WALL (      25 calls)

     Called by c_bands:
     init_us_2    :      2.95s CPU      3.10s WALL (    2772 calls)
     cegterg      :    199.73s CPU    202.49s WALL (    1100 calls)

     Called by *egterg:
     cdiaghg      :      1.78s CPU      1.82s WALL (    4705 calls)
     h_psi        :    142.67s CPU    145.16s WALL (    5057 calls)
     g_psi        :      0.80s CPU      0.82s WALL (    3913 calls)

     Called by h_psi:
     h_psi:calbec :     13.30s CPU     13.37s WALL (    5057 calls)
     vloc_psi     :    117.04s CPU    119.26s WALL (    5057 calls)
                                        0.00s GPU  (    5057 calls)
     add_vuspsi   :     11.75s CPU     11.83s WALL (    5057 calls)

     General routines
     calbec       :     28.31s CPU     28.46s WALL (    9545 calls)
     fft          :      0.48s CPU      0.49s WALL (     339 calls)
     ffts         :      0.04s CPU      0.04s WALL (      25 calls)
     fftw         :    120.49s CPU    122.90s WALL (  190596 calls)


     PWSCF        :   4m 6.05s CPU   4m 9.83s WALL


   This run was terminated on:  23:18:17  11Jan2026            

=------------------------------------------------------------------------------=
   JOB DONE.
=------------------------------------------------------------------------------=
