
     Program DOS v.7.5 starts on 12Jan2026 at  7:26:47 

     This program is part of the open-source Quantum ESPRESSO suite
     for quantum simulation of materials; please cite
         "P. Giannozzi et al., J. Phys.:Condens. Matter 21 395502 (2009);
         "P. Giannozzi et al., J. Phys.:Condens. Matter 29 465901 (2017);
         "P. Giannozzi et al., J. Chem. Phys. 152 154105 (2020);
          URL http://www.quantum-espresso.org", 
     in publications or presentations arising from this work. More details at
     http://www.quantum-espresso.org/quote

     Serial version
     5179 MiB available memory on the printing compute node when the environment starts


     Reading xml data from directory:

     ./tmp/CdTe.save/

     IMPORTANT: XC functional enforced from input :
     Exchange-correlation= PBE
                           (   1   4   3   4   0   0   0)
     Any further DFT definition will be discarded
     Please, verify this is what you really want


     G-vector sticks info
     --------------------
     sticks:   dense  smooth     PW     G-vecs:    dense   smooth      PW
     Sum        1507    1507    439                38781    38781    6183

     Using Slab Decomposition


     Optimized tetrahedron method used

     [opt_tetra]  Optimized tetrahedron method is used.

     DOS          :  10m42.92s CPU  24m44.12s WALL


   This run was terminated on:   7:51:31  12Jan2026            

=------------------------------------------------------------------------------=
   JOB DONE.
=------------------------------------------------------------------------------=
