
     Program PWSCF v.7.5 starts on 10Jan2026 at 19:25:44 

     This program is part of the open-source Quantum ESPRESSO suite
     for quantum simulation of materials; please cite
         "P. Giannozzi et al., J. Phys.:Condens. Matter 21 395502 (2009);
         "P. Giannozzi et al., J. Phys.:Condens. Matter 29 465901 (2017);
         "P. Giannozzi et al., J. Chem. Phys. 152 154105 (2020);
          URL http://www.quantum-espresso.org", 
     in publications or presentations arising from this work. More details at
     http://www.quantum-espresso.org/quote

     Serial version
     1354 MiB available memory on the printing compute node when the environment starts

     Waiting for input...
     Reading input from standard input

     Current dimensions of program PWSCF are:
     Max number of different atomic species (ntypx) = 10
     Max number of k-points (npk) =  40000
     Max angular momentum in pseudopotentials (lmaxx) =  4


     G-vector sticks info
     --------------------
     sticks:   dense  smooth     PW     G-vecs:    dense   smooth      PW
     Sum         847     847    253                22607    22607    3645

     Using Slab Decomposition



     bravais-lattice index     =            4
     lattice parameter (alat)  =       5.8260  a.u.
     unit-cell volume          =     195.5883 (a.u.)^3
     number of atoms/cell      =            3
     number of atomic types    =            2
     number of electrons       =        16.00
     number of Kohn-Sham states=           12
     kinetic-energy cutoff     =      90.0000  Ry
     charge density cutoff     =     360.0000  Ry
     scf convergence threshold =      1.0E-06
     mixing beta               =       0.7000
     number of iterations used =            8  plain     mixing
     Exchange-correlation= PBE
                           (   1   4   3   4   0   0   0)

     celldm(1)=   5.826038  celldm(2)=   0.000000  celldm(3)=   1.142069
     celldm(4)=   0.000000  celldm(5)=   0.000000  celldm(6)=   0.000000

     crystal axes: (cart. coord. in units of alat)
               a(1) = (   1.000000   0.000000   0.000000 )  
               a(2) = (  -0.500000   0.866025   0.000000 )  
               a(3) = (   0.000000   0.000000   1.142069 )  

     reciprocal axes: (cart. coord. in units 2 pi/alat)
               b(1) = (  1.000000  0.577350 -0.000000 )  
               b(2) = (  0.000000  1.154701  0.000000 )  
               b(3) = (  0.000000 -0.000000  0.875604 )  


     PseudoPot. # 1 for Mg read from file:
     ./PSEUDO/Mg_ONCV_PBE_sr.upf
     MD5 check sum: f927bdb32a17e5444945ae8f6d999e45
     Pseudo is Norm-conserving, Zval = 10.0
     Generated using ONCVPSP code by D. R. Hamann
     Using radial grid of 1510 points,  4 beta functions with: 
                l(1) =   0
                l(2) =   0
                l(3) =   1
                l(4) =   1

     PseudoPot. # 2 for B  read from file:
     ./PSEUDO/B_ONCV_PBE_sr.upf
     MD5 check sum: 12e13f68e8dc593c0a1d43390bab284b
     Pseudo is Norm-conserving + core correction, Zval =  3.0
     Generated using ONCVPSP code by D. R. Hamann
     Using radial grid of 1534 points,  4 beta functions with: 
                l(1) =   0
                l(2) =   0
                l(3) =   1
                l(4) =   1

     atomic species   valence    mass     pseudopotential
     Mg               10.00    24.30500     Mg( 1.00)
     B                 3.00    10.81100     B ( 1.00)

     24 Sym. Ops., with inversion, found



   Cartesian axes

     site n.     atom                  positions (alat units)
         1        Mg     tau(   1) = (   0.0000000   0.0000000   0.0000000  )
         2        B      tau(   2) = (   0.0000000   0.5773503   0.5710347  )
         3        B      tau(   3) = (   0.5000000   0.2886751   0.5710347  )

     number of k points=    84  Gaussian smearing, width (Ry)=  0.0400
                       cart. coord. in units 2pi/alat
        k(    1) = (   0.0000000   0.0000000   0.0000000), wk =   0.0020000
        k(    2) = (   0.0000000   0.0000000   0.0875604), wk =   0.0040000
        k(    3) = (   0.0000000   0.0000000   0.1751207), wk =   0.0040000
        k(    4) = (   0.0000000   0.0000000   0.2626811), wk =   0.0040000
        k(    5) = (   0.0000000   0.0000000   0.3502414), wk =   0.0040000
        k(    6) = (   0.0000000   0.0000000  -0.4378018), wk =   0.0020000
        k(    7) = (   0.0000000   0.1154701   0.0000000), wk =   0.0120000
        k(    8) = (   0.0000000   0.1154701   0.0875604), wk =   0.0240000
        k(    9) = (   0.0000000   0.1154701   0.1751207), wk =   0.0240000
        k(   10) = (   0.0000000   0.1154701   0.2626811), wk =   0.0240000
        k(   11) = (   0.0000000   0.1154701   0.3502414), wk =   0.0240000
        k(   12) = (   0.0000000   0.1154701  -0.4378018), wk =   0.0120000
        k(   13) = (   0.0000000   0.2309401   0.0000000), wk =   0.0120000
        k(   14) = (   0.0000000   0.2309401   0.0875604), wk =   0.0240000
        k(   15) = (   0.0000000   0.2309401   0.1751207), wk =   0.0240000
        k(   16) = (   0.0000000   0.2309401   0.2626811), wk =   0.0240000
        k(   17) = (   0.0000000   0.2309401   0.3502414), wk =   0.0240000
        k(   18) = (   0.0000000   0.2309401  -0.4378018), wk =   0.0120000
        k(   19) = (   0.0000000   0.3464102   0.0000000), wk =   0.0120000
        k(   20) = (   0.0000000   0.3464102   0.0875604), wk =   0.0240000
        k(   21) = (   0.0000000   0.3464102   0.1751207), wk =   0.0240000
        k(   22) = (   0.0000000   0.3464102   0.2626811), wk =   0.0240000
        k(   23) = (   0.0000000   0.3464102   0.3502414), wk =   0.0240000
        k(   24) = (   0.0000000   0.3464102  -0.4378018), wk =   0.0120000
        k(   25) = (   0.0000000   0.4618802   0.0000000), wk =   0.0120000
        k(   26) = (   0.0000000   0.4618802   0.0875604), wk =   0.0240000
        k(   27) = (   0.0000000   0.4618802   0.1751207), wk =   0.0240000
        k(   28) = (   0.0000000   0.4618802   0.2626811), wk =   0.0240000
        k(   29) = (   0.0000000   0.4618802   0.3502414), wk =   0.0240000
        k(   30) = (   0.0000000   0.4618802  -0.4378018), wk =   0.0120000
        k(   31) = (   0.0000000  -0.5773503   0.0000000), wk =   0.0060000
        k(   32) = (   0.0000000  -0.5773503   0.0875604), wk =   0.0120000
        k(   33) = (   0.0000000  -0.5773503   0.1751207), wk =   0.0120000
        k(   34) = (   0.0000000  -0.5773503   0.2626811), wk =   0.0120000
        k(   35) = (   0.0000000  -0.5773503   0.3502414), wk =   0.0120000
        k(   36) = (   0.0000000  -0.5773503  -0.4378018), wk =   0.0060000
        k(   37) = (   0.1000000   0.1732051   0.0000000), wk =   0.0120000
        k(   38) = (   0.1000000   0.1732051   0.0875604), wk =   0.0240000
        k(   39) = (   0.1000000   0.1732051   0.1751207), wk =   0.0240000
        k(   40) = (   0.1000000   0.1732051   0.2626811), wk =   0.0240000
        k(   41) = (   0.1000000   0.1732051   0.3502414), wk =   0.0240000
        k(   42) = (   0.1000000   0.1732051  -0.4378018), wk =   0.0120000
        k(   43) = (   0.1000000   0.2886751   0.0000000), wk =   0.0240000
        k(   44) = (   0.1000000   0.2886751   0.0875604), wk =   0.0480000
        k(   45) = (   0.1000000   0.2886751   0.1751207), wk =   0.0480000
        k(   46) = (   0.1000000   0.2886751   0.2626811), wk =   0.0480000
        k(   47) = (   0.1000000   0.2886751   0.3502414), wk =   0.0480000
        k(   48) = (   0.1000000   0.2886751  -0.4378018), wk =   0.0240000
        k(   49) = (   0.1000000   0.4041452   0.0000000), wk =   0.0240000
        k(   50) = (   0.1000000   0.4041452   0.0875604), wk =   0.0480000
        k(   51) = (   0.1000000   0.4041452   0.1751207), wk =   0.0480000
        k(   52) = (   0.1000000   0.4041452   0.2626811), wk =   0.0480000
        k(   53) = (   0.1000000   0.4041452   0.3502414), wk =   0.0480000
        k(   54) = (   0.1000000   0.4041452  -0.4378018), wk =   0.0240000
        k(   55) = (   0.1000000   0.5196152   0.0000000), wk =   0.0240000
        k(   56) = (   0.1000000   0.5196152   0.0875604), wk =   0.0480000
        k(   57) = (   0.1000000   0.5196152   0.1751207), wk =   0.0480000
        k(   58) = (   0.1000000   0.5196152   0.2626811), wk =   0.0480000
        k(   59) = (   0.1000000   0.5196152   0.3502414), wk =   0.0480000
        k(   60) = (   0.1000000   0.5196152  -0.4378018), wk =   0.0240000
        k(   61) = (   0.2000000   0.3464102   0.0000000), wk =   0.0120000
        k(   62) = (   0.2000000   0.3464102   0.0875604), wk =   0.0240000
        k(   63) = (   0.2000000   0.3464102   0.1751207), wk =   0.0240000
        k(   64) = (   0.2000000   0.3464102   0.2626811), wk =   0.0240000
        k(   65) = (   0.2000000   0.3464102   0.3502414), wk =   0.0240000
        k(   66) = (   0.2000000   0.3464102  -0.4378018), wk =   0.0120000
        k(   67) = (   0.2000000   0.4618802   0.0000000), wk =   0.0240000
        k(   68) = (   0.2000000   0.4618802   0.0875604), wk =   0.0480000
        k(   69) = (   0.2000000   0.4618802   0.1751207), wk =   0.0480000
        k(   70) = (   0.2000000   0.4618802   0.2626811), wk =   0.0480000
        k(   71) = (   0.2000000   0.4618802   0.3502414), wk =   0.0480000
        k(   72) = (   0.2000000   0.4618802  -0.4378018), wk =   0.0240000
        k(   73) = (   0.2000000   0.5773503   0.0000000), wk =   0.0120000
        k(   74) = (   0.2000000   0.5773503   0.0875604), wk =   0.0240000
        k(   75) = (   0.2000000   0.5773503   0.1751207), wk =   0.0240000
        k(   76) = (   0.2000000   0.5773503   0.2626811), wk =   0.0240000
        k(   77) = (   0.2000000   0.5773503   0.3502414), wk =   0.0240000
        k(   78) = (   0.2000000   0.5773503  -0.4378018), wk =   0.0120000
        k(   79) = (   0.3000000   0.5196152   0.0000000), wk =   0.0120000
        k(   80) = (   0.3000000   0.5196152   0.0875604), wk =   0.0240000
        k(   81) = (   0.3000000   0.5196152   0.1751207), wk =   0.0240000
        k(   82) = (   0.3000000   0.5196152   0.2626811), wk =   0.0240000
        k(   83) = (   0.3000000   0.5196152   0.3502414), wk =   0.0240000
        k(   84) = (   0.3000000   0.5196152  -0.4378018), wk =   0.0120000

     Dense  grid:    22607 G-vectors     FFT dimensions: (  36,  36,  45)

     Estimated max dynamical RAM per process >      61.98 MB

     Initial potential from superposition of free atoms

     starting charge      15.9987, renormalised to      16.0000
     Starting wfcs are   13 randomized atomic wfcs

     total cpu time spent up to now is        1.3 secs

     Self-consistent Calculation

     iteration #  1     ecut=    90.00 Ry     beta= 0.70
     Davidson diagonalization with overlap
     ethr =  1.00E-02,  avg # of iterations =  4.2

     total cpu time spent up to now is        4.8 secs

     total energy              =    -130.49352401 Ry
     estimated scf accuracy    <       0.31084434 Ry

     iteration #  2     ecut=    90.00 Ry     beta= 0.70
     Davidson diagonalization with overlap
     ethr =  1.94E-03,  avg # of iterations =  2.6

     total cpu time spent up to now is        7.7 secs

     total energy              =    -130.57752110 Ry
     estimated scf accuracy    <       0.05139189 Ry

     iteration #  3     ecut=    90.00 Ry     beta= 0.70
     Davidson diagonalization with overlap
     ethr =  3.21E-04,  avg # of iterations =  2.3

     total cpu time spent up to now is       10.2 secs

     total energy              =    -130.58725996 Ry
     estimated scf accuracy    <       0.00035146 Ry

     iteration #  4     ecut=    90.00 Ry     beta= 0.70
     Davidson diagonalization with overlap
     c_bands:  1 eigenvalues not converged
     ethr =  2.20E-06,  avg # of iterations =  6.7

     total cpu time spent up to now is       13.8 secs

     total energy              =    -130.58733756 Ry
     estimated scf accuracy    <       0.00001015 Ry

     iteration #  5     ecut=    90.00 Ry     beta= 0.70
     Davidson diagonalization with overlap
     ethr =  6.34E-08,  avg # of iterations =  2.2

     total cpu time spent up to now is       16.5 secs

     End of self-consistent calculation

          k = 0.0000 0.0000 0.0000 (  2835 PWs)   bands (ev):

   -66.0375 -32.8179 -32.8179 -32.8002  -3.2325   6.2583   9.5461   9.5461
    10.8762  15.5080  15.5080  17.2883

          k = 0.0000 0.0000 0.0876 (  2840 PWs)   bands (ev):

   -66.0374 -32.8178 -32.8178 -32.8009  -3.1460   5.5917   9.5789   9.5789
    11.7458  15.5386  15.5386  17.2739

          k = 0.0000 0.0000 0.1751 (  2840 PWs)   bands (ev):

   -66.0374 -32.8177 -32.8177 -32.8027  -2.8966   4.3208   9.6670   9.6670
    13.6217  15.6215  15.6215  17.2358

          k = 0.0000 0.0000 0.2627 (  2816 PWs)   bands (ev):

   -66.0373 -32.8175 -32.8175 -32.8050  -2.5242   3.0827   9.7808   9.7808
    15.7304  15.7304  15.8457  17.1888

          k = 0.0000 0.0000 0.3502 (  2804 PWs)   bands (ev):

   -66.0372 -32.8174 -32.8174 -32.8068  -2.1334   2.1434   9.8774   9.8774
    15.8245  15.8245  17.1507  18.0320

          k = 0.0000 0.0000-0.4378 (  2804 PWs)   bands (ev):

   -66.0372 -32.8173 -32.8173 -32.8075  -1.9466   1.7703   9.9154   9.9154
    15.8620  15.8620  17.1362  19.0521

          k = 0.0000 0.1155 0.0000 (  2807 PWs)   bands (ev):

   -66.0371 -32.8216 -32.8188 -32.7996  -3.0582   6.4280   8.6932   9.1513
    11.0326  15.3680  16.2535  18.5182

          k = 0.0000 0.1155 0.0876 (  2823 PWs)   bands (ev):

   -66.0371 -32.8216 -32.8187 -32.8003  -2.9724   5.7649   8.7327   9.1829
    11.8918  15.4153  16.2856  17.4237

          k = 0.0000 0.1155 0.1751 (  2824 PWs)   bands (ev):

   -66.0371 -32.8214 -32.8186 -32.8021  -2.7255   4.5007   8.8376   9.2675
    13.7295  15.5597  16.3727  16.9339

          k = 0.0000 0.1155 0.2627 (  2821 PWs)   bands (ev):

   -66.0370 -32.8213 -32.8184 -32.8044  -2.3574   3.2700   8.9747   9.3769
    15.4616  16.1894  16.4438  16.4873

          k = 0.0000 0.1155 0.3502 (  2816 PWs)   bands (ev):

   -66.0369 -32.8211 -32.8183 -32.8062  -1.9727   2.3385   9.0936   9.4696
    15.7565  16.0641  16.5866  18.2097

          k = 0.0000 0.1155-0.4378 (  2808 PWs)   bands (ev):

   -66.0369 -32.8211 -32.8182 -32.8069  -1.7896   1.9696   9.1411   9.5061
    15.8513  15.9028  16.6264  19.4631

          k = 0.0000 0.2309 0.0000 (  2813 PWs)   bands (ev):

   -66.0363 -32.8314 -32.8212 -32.7982  -2.5384   6.8388   6.9313   8.3643
    11.5061  14.8364  16.9741  18.0682

          k = 0.0000 0.2309 0.0876 (  2810 PWs)   bands (ev):

   -66.0363 -32.8313 -32.8211 -32.7988  -2.4549   6.2742   6.8947   8.3937
    12.3318  14.9001  16.4004  18.1028

          k = 0.0000 0.2309 0.1751 (  2817 PWs)   bands (ev):

   -66.0362 -32.8312 -32.8210 -32.8006  -2.2152   5.0333   7.0243   8.4726
    13.9842  15.0698  15.6285  18.1972

          k = 0.0000 0.2309 0.2627 (  2820 PWs)   bands (ev):

   -66.0361 -32.8310 -32.8208 -32.8028  -1.8598   3.8254   7.2003   8.5744
    14.3196  15.2615  16.6546  18.3231

          k = 0.0000 0.2309 0.3502 (  2816 PWs)   bands (ev):

   -66.0361 -32.8308 -32.8206 -32.8046  -1.4922   2.9167   7.3582   8.6606
    13.8127  15.5065  18.4364  18.6276

          k = 0.0000 0.2309-0.4378 (  2802 PWs)   bands (ev):

   -66.0361 -32.8308 -32.8206 -32.8053  -1.3195   2.5600   7.4230   8.6945
    13.6120  15.6079  18.4843  19.5035

          k = 0.0000 0.3464 0.0000 (  2813 PWs)   bands (ev):

   -66.0353 -32.8435 -32.8241 -32.7964  -1.6833   4.7706   7.6426   7.7427
    12.2261  14.3170  15.0391  18.1938

          k = 0.0000 0.3464 0.0876 (  2823 PWs)   bands (ev):

   -66.0352 -32.8434 -32.8241 -32.7970  -1.6036   4.8253   7.1161   7.6703
    12.9133  14.2433  14.7465  18.8100

          k = 0.0000 0.3464 0.1751 (  2821 PWs)   bands (ev):

   -66.0352 -32.8432 -32.8239 -32.7988  -1.3753   4.9736   5.9152   7.7446
    13.0440  14.3475  15.4542  19.8420

          k = 0.0000 0.3464 0.2627 (  2822 PWs)   bands (ev):

   -66.0351 -32.8430 -32.8237 -32.8009  -1.0397   4.7116   5.2174   7.8404
    12.1564  14.7825  17.3293  19.6390

          k = 0.0000 0.3464 0.3502 (  2821 PWs)   bands (ev):

   -66.0350 -32.8428 -32.8236 -32.8026  -0.6982   3.8512   5.3996   7.9213
    11.4890  15.1151  18.8402  19.0025

          k = 0.0000 0.3464-0.4378 (  2818 PWs)   bands (ev):

   -66.0350 -32.8427 -32.8235 -32.8033  -0.5405   3.5137   5.4804   7.9531
    11.2439  15.2597  18.7787  18.8369

          k = 0.0000 0.4619 0.0000 (  2814 PWs)   bands (ev):

   -66.0344 -32.8532 -32.8265 -32.7949  -0.5159   2.8098   7.1694   8.7590
    12.9154  13.2199  14.2065  17.0794

          k = 0.0000 0.4619 0.0876 (  2822 PWs)   bands (ev):

   -66.0344 -32.8531 -32.8264 -32.7956  -0.4411   2.8728   7.1960   8.1697
    12.3366  13.5675  14.7374  17.7592

          k = 0.0000 0.4619 0.1751 (  2820 PWs)   bands (ev):

   -66.0343 -32.8529 -32.8263 -32.7973  -0.2280   3.0493   7.0188   7.2674
    11.1998  14.0426  16.2627  19.0102

          k = 0.0000 0.4619 0.2627 (  2827 PWs)   bands (ev):

   -66.0343 -32.8527 -32.8261 -32.7994   0.0823   3.2971   5.8964   7.3594
    10.1414  14.4531  18.1577  19.3327

          k = 0.0000 0.4619 0.3502 (  2831 PWs)   bands (ev):

   -66.0342 -32.8525 -32.8259 -32.8010   0.3927   3.5323   5.0640   7.4371
     9.3936  14.8299  18.4401  18.5150

          k = 0.0000 0.4619-0.4378 (  2836 PWs)   bands (ev):

   -66.0342 -32.8524 -32.8258 -32.8017   0.5333   3.6346   4.7430   7.4676
     9.1191  15.0034  18.2046  18.2893

          k = 0.0000-0.5774 0.0000 (  2820 PWs)   bands (ev):

   -66.0341 -32.8569 -32.8274 -32.7944   0.6623   1.3588   7.0065   9.4186
    12.2747  13.1075  14.5321  16.3099

          k = 0.0000-0.5774 0.0876 (  2822 PWs)   bands (ev):

   -66.0341 -32.8569 -32.8273 -32.7950   0.7309   1.4288   7.0328   8.8819
    11.4147  13.5123  15.2695  16.9764

          k = 0.0000-0.5774 0.1751 (  2814 PWs)   bands (ev):

   -66.0340 -32.8566 -32.8272 -32.7967   0.9267   1.6251   7.1033   7.8029
    10.1412  13.9241  16.9454  18.3028

          k = 0.0000-0.5774 0.2627 (  2828 PWs)   bands (ev):

   -66.0340 -32.8564 -32.8270 -32.7988   1.2126   1.9004   6.7365   7.1940
     9.0056  14.3357  18.7445  18.9838

          k = 0.0000-0.5774 0.3502 (  2828 PWs)   bands (ev):

   -66.0339 -32.8561 -32.8268 -32.8004   1.4993   2.1602   5.9460   7.2705
     8.2076  14.7282  18.2531  18.3508

          k = 0.0000-0.5774-0.4378 (  2836 PWs)   bands (ev):

   -66.0339 -32.8561 -32.8267 -32.8011   1.6294   2.2715   5.6436   7.3006
     7.9141  14.9124  17.9821  18.1253

          k = 0.1000 0.1732 0.0000 (  2815 PWs)   bands (ev):

   -66.0366 -32.8281 -32.8207 -32.7986  -2.7111   6.7648   7.5659   8.3042
    11.3763  15.6274  16.5031  17.4722

          k = 0.1000 0.1732 0.0876 (  2815 PWs)   bands (ev):

   -66.0365 -32.8281 -32.8206 -32.7993  -2.6269   6.1081   7.6100   8.3441
    12.2170  15.6887  16.3314  17.2128

          k = 0.1000 0.1732 0.1751 (  2816 PWs)   bands (ev):

   -66.0365 -32.8279 -32.8205 -32.8011  -2.3848   4.8574   7.7311   8.4369
    14.0071  15.7247  15.8851  17.1041

          k = 0.1000 0.1732 0.2627 (  2825 PWs)   bands (ev):

   -66.0364 -32.8277 -32.8203 -32.8033  -2.0252   3.6415   7.8938   8.5525
    15.0196  15.6522  16.6155  17.1871

          k = 0.1000 0.1732 0.3502 (  2819 PWs)   bands (ev):

   -66.0363 -32.8276 -32.8202 -32.8051  -1.6521   2.7252   8.0384   8.6501
    14.5034  16.0581  17.2937  18.4197

          k = 0.1000 0.1732-0.4378 (  2804 PWs)   bands (ev):

   -66.0363 -32.8275 -32.8201 -32.8058  -1.4760   2.3646   8.0974   8.6885
    14.3148  16.1596  17.3402  18.7719

          k = 0.1000 0.2887 0.0000 (  2816 PWs)   bands (ev):

   -66.0356 -32.8384 -32.8240 -32.7970  -2.0237   5.8079   7.3111   7.4258
    12.0375  15.3375  15.8125  17.4535

          k = 0.1000 0.2887 0.0876 (  2816 PWs)   bands (ev):

   -66.0356 -32.8383 -32.8240 -32.7977  -1.9424   5.8571   6.7797   7.3614
    12.8449  15.0035  15.6341  17.8074

          k = 0.1000 0.2887 0.1751 (  2814 PWs)   bands (ev):

   -66.0355 -32.8381 -32.8238 -32.7994  -1.7097   5.5471   6.0157   7.4537
    13.9610  14.6124  15.8550  18.2156

          k = 0.1000 0.2887 0.2627 (  2816 PWs)   bands (ev):

   -66.0355 -32.8379 -32.8236 -32.8016  -1.3664   4.3697   6.2030   7.5759
    13.0937  15.7011  16.9981  18.3286

          k = 0.1000 0.2887 0.3502 (  2816 PWs)   bands (ev):

   -66.0354 -32.8377 -32.8235 -32.8033  -1.0148   3.4834   6.3799   7.6811
    12.4563  16.0493  17.4776  18.6969

          k = 0.1000 0.2887-0.4378 (  2824 PWs)   bands (ev):

   -66.0354 -32.8377 -32.8234 -32.8040  -0.8515   3.1381   6.4536   7.7229
    12.2244  16.1927  17.2441  18.7941

          k = 0.1000 0.4041 0.0000 (  2820 PWs)   bands (ev):

   -66.0347 -32.8486 -32.8274 -32.7954  -1.0111   3.8475   6.6431   8.3639
    12.9222  13.9837  14.8519  17.5545

          k = 0.1000 0.4041 0.0876 (  2816 PWs)   bands (ev):

   -66.0347 -32.8485 -32.8273 -32.7960  -0.9342   3.9062   6.6760   7.7593
    13.1485  13.8129  15.1249  18.1006

          k = 0.1000 0.4041 0.1751 (  2824 PWs)   bands (ev):

   -66.0346 -32.8483 -32.8272 -32.7977  -0.7147   4.0697   6.5412   6.8135
    12.0956  14.9037  15.9452  18.3785

          k = 0.1000 0.4041 0.2627 (  2822 PWs)   bands (ev):

   -66.0345 -32.8481 -32.8270 -32.7998  -0.3940   4.2965   5.4259   6.9118
    11.0768  15.3747  17.1042  18.2277

          k = 0.1000 0.4041 0.3502 (  2821 PWs)   bands (ev):

   -66.0345 -32.8479 -32.8268 -32.8015  -0.0710   4.4827   4.6056   7.0194
    10.3596  15.7064  16.5722  20.0279

          k = 0.1000 0.4041-0.4378 (  2824 PWs)   bands (ev):

   -66.0344 -32.8478 -32.8267 -32.8022   0.0763   4.2438   4.6086   7.0630
    10.0971  15.9392  16.2221  20.9077

          k = 0.1000 0.5196 0.0000 (  2813 PWs)   bands (ev):

   -66.0341 -32.8549 -32.8295 -32.7944   0.2771   2.0410   6.3057   9.3521
    12.4864  13.7577  14.6198  16.6869

          k = 0.1000 0.5196 0.0876 (  2815 PWs)   bands (ev):

   -66.0341 -32.8548 -32.8294 -32.7950   0.3484   2.1070   6.3412   8.7925
    11.7187  14.2759  15.2200  17.2221

          k = 0.1000 0.5196 0.1751 (  2824 PWs)   bands (ev):

   -66.0340 -32.8546 -32.8292 -32.7967   0.5513   2.2924   6.4373   7.6838
    10.4900  14.7721  16.7528  17.7342

          k = 0.1000 0.5196 0.2627 (  2825 PWs)   bands (ev):

   -66.0340 -32.8543 -32.8290 -32.7988   0.8454   2.5537   6.5327   6.6283
     9.3828  15.1251  16.8448  18.8904

          k = 0.1000 0.5196 0.3502 (  2829 PWs)   bands (ev):

   -66.0339 -32.8541 -32.8288 -32.8004   1.1375   2.8025   5.7877   6.6815
     8.6018  15.4394  16.1764  20.7001

          k = 0.1000 0.5196-0.4378 (  2828 PWs)   bands (ev):

   -66.0339 -32.8540 -32.8288 -32.8011   1.2688   2.9101   5.4810   6.7272
     8.3131  15.7229  15.7709  20.6850

          k = 0.2000 0.3464 0.0000 (  2817 PWs)   bands (ev):

   -66.0348 -32.8455 -32.8290 -32.7956  -1.1783   4.7068   5.8009   8.2269
    12.8896  14.3604  16.5977  16.7326

          k = 0.2000 0.3464 0.0876 (  2810 PWs)   bands (ev):

   -66.0348 -32.8455 -32.8289 -32.7962  -1.1007   4.7627   5.8403   7.6175
    13.6858  13.7032  16.7346  17.1535

          k = 0.2000 0.3464 0.1751 (  2815 PWs)   bands (ev):

   -66.0347 -32.8453 -32.8288 -32.7979  -0.8790   4.9189   5.9232   6.4644
    12.5952  15.3832  16.6157  17.9204

          k = 0.2000 0.3464 0.2627 (  2818 PWs)   bands (ev):

   -66.0346 -32.8450 -32.8286 -32.8000  -0.5547   5.1370   5.2397   6.1476
    11.5967  16.0956  16.9806  18.4331

          k = 0.2000 0.3464 0.3502 (  2820 PWs)   bands (ev):

   -66.0346 -32.8448 -32.8284 -32.8017  -0.2274   4.3977   5.3409   6.2663
    10.9006  15.5340  17.4485  18.7318

          k = 0.2000 0.3464-0.4378 (  2834 PWs)   bands (ev):

   -66.0345 -32.8448 -32.8283 -32.8024  -0.0777   4.0703   5.4274   6.3171
    10.6468  15.3172  17.5358  18.8350

          k = 0.2000 0.4619 0.0000 (  2824 PWs)   bands (ev):

   -66.0341 -32.8506 -32.8338 -32.7944  -0.0287   3.1539   4.9880   9.2559
    12.8516  13.9268  15.8935  17.3707

          k = 0.2000 0.4619 0.0876 (  2813 PWs)   bands (ev):

   -66.0341 -32.8505 -32.8337 -32.7950   0.0441   3.2150   5.0350   8.6701
    12.2075  14.6979  16.3507  17.2872

          k = 0.2000 0.4619 0.1751 (  2822 PWs)   bands (ev):

   -66.0340 -32.8503 -32.8335 -32.7967   0.2512   3.3865   5.1634   7.5281
    11.0673  16.0212  16.2879  17.5611

          k = 0.2000 0.4619 0.2627 (  2818 PWs)   bands (ev):

   -66.0340 -32.8500 -32.8333 -32.7988   0.5514   3.6280   5.3343   6.4199
    10.0171  15.0883  17.3669  18.8028

          k = 0.2000 0.4619 0.3502 (  2822 PWs)   bands (ev):

   -66.0339 -32.8498 -32.8331 -32.8004   0.8498   3.8575   5.4665   5.6238
     9.2745  14.4074  17.6842  20.2718

          k = 0.2000 0.4619-0.4378 (  2830 PWs)   bands (ev):

   -66.0339 -32.8497 -32.8331 -32.8011   0.9839   3.9568   5.2759   5.5651
     9.0005  14.1634  17.7784  20.5159

          k = 0.2000 0.5774 0.0000 (  2808 PWs)   bands (ev):

   -66.0338 -32.8523 -32.8358 -32.7939   1.1193   1.7993   4.7713   9.9931
    11.9346  14.8510  15.1724  17.2588

          k = 0.2000 0.5774 0.0876 (  2818 PWs)   bands (ev):

   -66.0338 -32.8522 -32.8357 -32.7946   1.1867   1.8662   4.8197   9.4421
    11.2680  15.5948  15.7929  16.9099

          k = 0.2000 0.5774 0.1751 (  2821 PWs)   bands (ev):

   -66.0338 -32.8520 -32.8355 -32.7962   1.3786   2.0541   4.9527   8.3512
    10.0792  15.7319  16.8676  17.2547

          k = 0.2000 0.5774 0.2627 (  2822 PWs)   bands (ev):

   -66.0337 -32.8517 -32.8353 -32.7983   1.6573   2.3180   5.1327   7.2851
     8.9809  14.7398  17.3574  19.2296

          k = 0.2000 0.5774 0.3502 (  2830 PWs)   bands (ev):

   -66.0336 -32.8515 -32.8351 -32.8000   1.9346   2.5676   5.2959   6.5016
     8.1985  14.0402  17.6292  21.1530

          k = 0.2000 0.5774-0.4378 (  2842 PWs)   bands (ev):

   -66.0336 -32.8514 -32.8351 -32.8006   2.0593   2.6747   5.3643   6.2039
     7.9074  13.7910  17.7236  22.4835

          k = 0.3000 0.5196 0.0000 (  2809 PWs)   bands (ev):

   -66.0338 -32.8485 -32.8411 -32.7938   1.1958   2.4828   3.6492  10.3273
    11.6866  14.9181  15.7213  18.1105

          k = 0.3000 0.5196 0.0876 (  2812 PWs)   bands (ev):

   -66.0337 -32.8484 -32.8410 -32.7944   1.2636   2.5461   3.7040   9.7551
    11.0941  15.6638  16.4538  16.6716

          k = 0.3000 0.5196 0.1751 (  2823 PWs)   bands (ev):

   -66.0337 -32.8482 -32.8408 -32.7961   1.4559   2.7254   3.8544   8.6421
     9.9782  15.2160  17.3041  17.9361

          k = 0.3000 0.5196 0.2627 (  2826 PWs)   bands (ev):

   -66.0336 -32.8479 -32.8406 -32.7981   1.7331   2.9819   4.0563   7.5661
     8.9224  14.0428  19.0328  19.3693

          k = 0.3000 0.5196 0.3502 (  2837 PWs)   bands (ev):

   -66.0335 -32.8477 -32.8404 -32.7998   2.0055   3.2311   4.2364   6.7799
     8.1643  13.2668  19.8240  20.2160

          k = 0.3000 0.5196-0.4378 (  2832 PWs)   bands (ev):

   -66.0335 -32.8476 -32.8403 -32.8004   2.1266   3.3406   4.3104   6.4822
     7.8815  12.9934  19.9587  20.4556

     the Fermi energy is     9.1911 ev

!    total energy              =    -130.58733977 Ry
     estimated scf accuracy    <       0.00000023 Ry
     smearing contrib. (-TS)   =      -0.00734813 Ry
     internal energy E=F+TS    =    -130.57999164 Ry

     The total energy is F=E-TS. E is the sum of the following terms:
     one-electron contribution =     -76.51075241 Ry
     hartree contribution      =      40.67371653 Ry
     xc contribution           =     -20.84129087 Ry
     ewald contribution        =     -73.90166488 Ry

     convergence has been achieved in   5 iterations

     Forces acting on atoms (cartesian axes, Ry/au):

     atom    1 type  1   force =     0.00000000    0.00000000    0.00000000
     atom    2 type  2   force =     0.00000000    0.00000000   -0.00000000
     atom    3 type  2   force =    -0.00000000   -0.00000000    0.00000000

     Total force =     0.000000     Total SCF correction =     0.000000


     Computing stress (Cartesian axis) and pressure

          total   stress  (Ry/bohr**3)                   (kbar)     P=       -6.63
  -0.00007631   0.00000000   0.00000000          -11.23        0.00        0.00
   0.00000000  -0.00007631   0.00000000            0.00      -11.23        0.00
   0.00000000   0.00000000   0.00001750            0.00        0.00        2.58


     Writing all to output data dir ./tmp/MgB2.save/ :
     XML data file, charge density, pseudopotentials, collected wavefunctions

     init_run     :      1.22s CPU      1.28s WALL (       1 calls)
     electrons    :     14.50s CPU     15.19s WALL (       1 calls)
     forces       :      0.29s CPU      0.31s WALL (       1 calls)
     stress       :      1.11s CPU      1.13s WALL (       1 calls)

     Called by init_run:
     wfcinit      :      1.05s CPU      1.10s WALL (       1 calls)
     potinit      :      0.06s CPU      0.07s WALL (       1 calls)
     hinit0       :      0.09s CPU      0.09s WALL (       1 calls)

     Called by electrons:
     c_bands      :     12.81s CPU     13.41s WALL (       5 calls)
     sum_band     :      1.62s CPU      1.70s WALL (       5 calls)
     v_of_rho     :      0.08s CPU      0.09s WALL (       6 calls)
     mix_rho      :      0.01s CPU      0.01s WALL (       5 calls)

     Called by c_bands:
     init_us_2    :      0.37s CPU      0.40s WALL (    1092 calls)
     cegterg      :     12.44s CPU     13.01s WALL (     420 calls)

     Called by *egterg:
     cdiaghg      :      0.17s CPU      0.19s WALL (    1927 calls)
     h_psi        :     10.26s CPU     10.77s WALL (    2011 calls)
     g_psi        :      0.07s CPU      0.08s WALL (    1507 calls)

     Called by h_psi:
     h_psi:calbec :      0.87s CPU      0.90s WALL (    2011 calls)
     vloc_psi     :      8.49s CPU      8.95s WALL (    2011 calls)
                                        0.00s GPU  (    2011 calls)
     add_vuspsi   :      0.80s CPU      0.83s WALL (    2011 calls)

     General routines
     calbec       :      1.79s CPU      1.84s WALL (    3439 calls)
     fft          :      0.04s CPU      0.04s WALL (      84 calls)
     ffts         :      0.00s CPU      0.00s WALL (       5 calls)
     fftw         :      8.63s CPU      9.13s WALL (   34464 calls)


     PWSCF        :     17.17s CPU     17.99s WALL


   This run was terminated on:  19:26: 2  10Jan2026            

=------------------------------------------------------------------------------=
   JOB DONE.
=------------------------------------------------------------------------------=
