
     Program PWSCF v.7.5 starts on 10Jan2026 at 19:26: 2 

     This program is part of the open-source Quantum ESPRESSO suite
     for quantum simulation of materials; please cite
         "P. Giannozzi et al., J. Phys.:Condens. Matter 21 395502 (2009);
         "P. Giannozzi et al., J. Phys.:Condens. Matter 29 465901 (2017);
         "P. Giannozzi et al., J. Chem. Phys. 152 154105 (2020);
          URL http://www.quantum-espresso.org", 
     in publications or presentations arising from this work. More details at
     http://www.quantum-espresso.org/quote

     Serial version
     1396 MiB available memory on the printing compute node when the environment starts

     Waiting for input...
     Reading input from standard input

     Current dimensions of program PWSCF are:
     Max number of different atomic species (ntypx) = 10
     Max number of k-points (npk) =  40000
     Max angular momentum in pseudopotentials (lmaxx) =  4


     G-vector sticks info
     --------------------
     sticks:   dense  smooth     PW     G-vecs:    dense   smooth      PW
     Sum         847     847    253                22607    22607    3657

     Using Slab Decomposition



     bravais-lattice index     =            4
     lattice parameter (alat)  =       5.8260  a.u.
     unit-cell volume          =     195.5883 (a.u.)^3
     number of atoms/cell      =            3
     number of atomic types    =            2
     number of electrons       =        16.00
     number of Kohn-Sham states=           12
     kinetic-energy cutoff     =      90.0000  Ry
     charge density cutoff     =     360.0000  Ry
     scf convergence threshold =      1.0E-06
     mixing beta               =       0.7000
     number of iterations used =            8  plain     mixing
     Exchange-correlation= PBE
                           (   1   4   3   4   0   0   0)

     celldm(1)=   5.826038  celldm(2)=   0.000000  celldm(3)=   1.142069
     celldm(4)=   0.000000  celldm(5)=   0.000000  celldm(6)=   0.000000

     crystal axes: (cart. coord. in units of alat)
               a(1) = (   1.000000   0.000000   0.000000 )  
               a(2) = (  -0.500000   0.866025   0.000000 )  
               a(3) = (   0.000000   0.000000   1.142069 )  

     reciprocal axes: (cart. coord. in units 2 pi/alat)
               b(1) = (  1.000000  0.577350 -0.000000 )  
               b(2) = (  0.000000  1.154701  0.000000 )  
               b(3) = (  0.000000 -0.000000  0.875604 )  


     PseudoPot. # 1 for Mg read from file:
     ./PSEUDO/Mg_ONCV_PBE_sr.upf
     MD5 check sum: f927bdb32a17e5444945ae8f6d999e45
     Pseudo is Norm-conserving, Zval = 10.0
     Generated using ONCVPSP code by D. R. Hamann
     Using radial grid of 1510 points,  4 beta functions with: 
                l(1) =   0
                l(2) =   0
                l(3) =   1
                l(4) =   1

     PseudoPot. # 2 for B  read from file:
     ./PSEUDO/B_ONCV_PBE_sr.upf
     MD5 check sum: 12e13f68e8dc593c0a1d43390bab284b
     Pseudo is Norm-conserving + core correction, Zval =  3.0
     Generated using ONCVPSP code by D. R. Hamann
     Using radial grid of 1534 points,  4 beta functions with: 
                l(1) =   0
                l(2) =   0
                l(3) =   1
                l(4) =   1

     atomic species   valence    mass     pseudopotential
     Mg               10.00    24.30500     Mg( 1.00)
     B                 3.00    10.81100     B ( 1.00)

     24 Sym. Ops., with inversion, found



   Cartesian axes

     site n.     atom                  positions (alat units)
         1        Mg     tau(   1) = (   0.0000000   0.0000000   0.0000000  )
         2        B      tau(   2) = (   0.0000000   0.5773503   0.5710347  )
         3        B      tau(   3) = (   0.5000000   0.2886751   0.5710347  )

     number of k points=   133  Gaussian smearing, width (Ry)=  0.0400

     Number of k-points >= 100: set verbosity='high' to print them.

     Dense  grid:    22607 G-vectors     FFT dimensions: (  36,  36,  45)

     Estimated max dynamical RAM per process >      87.29 MB

     Initial potential from superposition of free atoms

     starting charge      15.9987, renormalised to      16.0000
     Starting wfcs are   13 randomized atomic wfcs

     total cpu time spent up to now is        1.8 secs

     Self-consistent Calculation

     iteration #  1     ecut=    90.00 Ry     beta= 0.70
     Davidson diagonalization with overlap
     ethr =  1.00E-02,  avg # of iterations =  4.2

     total cpu time spent up to now is        6.8 secs

     total energy              =    -130.49360618 Ry
     estimated scf accuracy    <       0.31074560 Ry

     iteration #  2     ecut=    90.00 Ry     beta= 0.70
     Davidson diagonalization with overlap
     ethr =  1.94E-03,  avg # of iterations =  2.5

     total cpu time spent up to now is       11.2 secs

     total energy              =    -130.57764227 Ry
     estimated scf accuracy    <       0.05112030 Ry

     iteration #  3     ecut=    90.00 Ry     beta= 0.70
     Davidson diagonalization with overlap
     ethr =  3.20E-04,  avg # of iterations =  2.3

     total cpu time spent up to now is       15.2 secs

     total energy              =    -130.58730158 Ry
     estimated scf accuracy    <       0.00034541 Ry

     iteration #  4     ecut=    90.00 Ry     beta= 0.70
     Davidson diagonalization with overlap
     ethr =  2.16E-06,  avg # of iterations =  6.8

     total cpu time spent up to now is       21.2 secs

     total energy              =    -130.58737963 Ry
     estimated scf accuracy    <       0.00001044 Ry

     iteration #  5     ecut=    90.00 Ry     beta= 0.70
     Davidson diagonalization with overlap
     ethr =  6.53E-08,  avg # of iterations =  2.1

     total cpu time spent up to now is       25.4 secs

     End of self-consistent calculation

     Number of k-points >= 100: set verbosity='high' to print the bands.

     the Fermi energy is     9.1991 ev

!    total energy              =    -130.58738180 Ry
     estimated scf accuracy    <       0.00000022 Ry
     smearing contrib. (-TS)   =      -0.00726987 Ry
     internal energy E=F+TS    =    -130.58011193 Ry

     The total energy is F=E-TS. E is the sum of the following terms:
     one-electron contribution =     -76.51086204 Ry
     hartree contribution      =      40.67369593 Ry
     xc contribution           =     -20.84128094 Ry
     ewald contribution        =     -73.90166488 Ry

     convergence has been achieved in   5 iterations

     Forces acting on atoms (cartesian axes, Ry/au):

     atom    1 type  1   force =     0.00000000    0.00000000   -0.00000000
     atom    2 type  2   force =    -0.00000000    0.00000000    0.00000000
     atom    3 type  2   force =     0.00000000    0.00000000    0.00000000

     Total force =     0.000000     Total SCF correction =     0.000000


     Computing stress (Cartesian axis) and pressure

          total   stress  (Ry/bohr**3)                   (kbar)     P=       -6.69
  -0.00007775   0.00000000   0.00000000          -11.44        0.00        0.00
   0.00000000  -0.00007775   0.00000000            0.00      -11.44        0.00
   0.00000000   0.00000000   0.00001902            0.00        0.00        2.80


     Writing all to output data dir ./tmp/MgB2.save/ :
     XML data file, charge density, pseudopotentials, collected wavefunctions

     init_run     :      1.74s CPU      1.80s WALL (       1 calls)
     electrons    :     22.54s CPU     23.58s WALL (       1 calls)
     forces       :      0.46s CPU      0.47s WALL (       1 calls)
     stress       :      1.77s CPU      1.81s WALL (       1 calls)

     Called by init_run:
     wfcinit      :      1.57s CPU      1.63s WALL (       1 calls)
     potinit      :      0.05s CPU      0.06s WALL (       1 calls)
     hinit0       :      0.08s CPU      0.08s WALL (       1 calls)

     Called by electrons:
     c_bands      :     19.94s CPU     20.86s WALL (       5 calls)
     sum_band     :      2.52s CPU      2.64s WALL (       5 calls)
     v_of_rho     :      0.08s CPU      0.08s WALL (       6 calls)
     mix_rho      :      0.01s CPU      0.01s WALL (       5 calls)

     Called by c_bands:
     init_us_2    :      0.55s CPU      0.60s WALL (    1729 calls)
     cegterg      :     19.40s CPU     20.25s WALL (     665 calls)

     Called by *egterg:
     cdiaghg      :      0.26s CPU      0.29s WALL (    3038 calls)
     h_psi        :     15.93s CPU     16.68s WALL (    3171 calls)
     g_psi        :      0.11s CPU      0.12s WALL (    2373 calls)

     Called by h_psi:
     h_psi:calbec :      1.34s CPU      1.39s WALL (    3171 calls)
     vloc_psi     :     13.22s CPU     13.87s WALL (    3171 calls)
                                        0.00s GPU  (    3171 calls)
     add_vuspsi   :      1.24s CPU      1.29s WALL (    3171 calls)

     General routines
     calbec       :      2.83s CPU      2.92s WALL (    5432 calls)
     fft          :      0.04s CPU      0.04s WALL (      84 calls)
     ffts         :      0.00s CPU      0.00s WALL (       5 calls)
     fftw         :     13.48s CPU     14.21s WALL (   54610 calls)


     PWSCF        :     26.56s CPU     27.79s WALL


   This run was terminated on:  19:26:30  10Jan2026            

=------------------------------------------------------------------------------=
   JOB DONE.
=------------------------------------------------------------------------------=
