
     Program PWSCF v.7.5 starts on 10Jan2026 at 19:19: 0 

     This program is part of the open-source Quantum ESPRESSO suite
     for quantum simulation of materials; please cite
         "P. Giannozzi et al., J. Phys.:Condens. Matter 21 395502 (2009);
         "P. Giannozzi et al., J. Phys.:Condens. Matter 29 465901 (2017);
         "P. Giannozzi et al., J. Chem. Phys. 152 154105 (2020);
          URL http://www.quantum-espresso.org", 
     in publications or presentations arising from this work. More details at
     http://www.quantum-espresso.org/quote

     Serial version
     1141 MiB available memory on the printing compute node when the environment starts

     Waiting for input...
     Reading input from standard input

     Current dimensions of program PWSCF are:
     Max number of different atomic species (ntypx) = 10
     Max number of k-points (npk) =  40000
     Max angular momentum in pseudopotentials (lmaxx) =  4


     G-vector sticks info
     --------------------
     sticks:   dense  smooth     PW     G-vecs:    dense   smooth      PW
     Sum         559     559    163                12303    12303    2041

     Using Slab Decomposition



     bravais-lattice index     =            4
     lattice parameter (alat)  =       5.8260  a.u.
     unit-cell volume          =     195.5883 (a.u.)^3
     number of atoms/cell      =            3
     number of atomic types    =            2
     number of electrons       =        16.00
     number of Kohn-Sham states=           12
     kinetic-energy cutoff     =      60.0000  Ry
     charge density cutoff     =     240.0000  Ry
     scf convergence threshold =      1.0E-06
     mixing beta               =       0.7000
     number of iterations used =            8  plain     mixing
     Exchange-correlation= PBE
                           (   1   4   3   4   0   0   0)

     celldm(1)=   5.826038  celldm(2)=   0.000000  celldm(3)=   1.142069
     celldm(4)=   0.000000  celldm(5)=   0.000000  celldm(6)=   0.000000

     crystal axes: (cart. coord. in units of alat)
               a(1) = (   1.000000   0.000000   0.000000 )  
               a(2) = (  -0.500000   0.866025   0.000000 )  
               a(3) = (   0.000000   0.000000   1.142069 )  

     reciprocal axes: (cart. coord. in units 2 pi/alat)
               b(1) = (  1.000000  0.577350 -0.000000 )  
               b(2) = (  0.000000  1.154701  0.000000 )  
               b(3) = (  0.000000 -0.000000  0.875604 )  


     PseudoPot. # 1 for Mg read from file:
     ./PSEUDO/Mg_ONCV_PBE_sr.upf
     MD5 check sum: f927bdb32a17e5444945ae8f6d999e45
     Pseudo is Norm-conserving, Zval = 10.0
     Generated using ONCVPSP code by D. R. Hamann
     Using radial grid of 1510 points,  4 beta functions with: 
                l(1) =   0
                l(2) =   0
                l(3) =   1
                l(4) =   1

     PseudoPot. # 2 for B  read from file:
     ./PSEUDO/B_ONCV_PBE_sr.upf
     MD5 check sum: 12e13f68e8dc593c0a1d43390bab284b
     Pseudo is Norm-conserving + core correction, Zval =  3.0
     Generated using ONCVPSP code by D. R. Hamann
     Using radial grid of 1534 points,  4 beta functions with: 
                l(1) =   0
                l(2) =   0
                l(3) =   1
                l(4) =   1

     atomic species   valence    mass     pseudopotential
     Mg               10.00    24.30500     Mg( 1.00)
     B                 3.00    10.81100     B ( 1.00)

     24 Sym. Ops., with inversion, found



   Cartesian axes

     site n.     atom                  positions (alat units)
         1        Mg     tau(   1) = (   0.0000000   0.0000000   0.0000000  )
         2        B      tau(   2) = (   0.0000000   0.5773503   0.5710347  )
         3        B      tau(   3) = (   0.5000000   0.2886751   0.5710347  )

     number of k points=    50  Gaussian smearing, width (Ry)=  0.0400
                       cart. coord. in units 2pi/alat
        k(    1) = (   0.0000000   0.0000000   0.0000000), wk =   0.0039062
        k(    2) = (   0.0000000   0.0000000   0.1094504), wk =   0.0078125
        k(    3) = (   0.0000000   0.0000000   0.2189009), wk =   0.0078125
        k(    4) = (   0.0000000   0.0000000   0.3283513), wk =   0.0078125
        k(    5) = (   0.0000000   0.0000000  -0.4378018), wk =   0.0039062
        k(    6) = (   0.0000000   0.1443376   0.0000000), wk =   0.0234375
        k(    7) = (   0.0000000   0.1443376   0.1094504), wk =   0.0468750
        k(    8) = (   0.0000000   0.1443376   0.2189009), wk =   0.0468750
        k(    9) = (   0.0000000   0.1443376   0.3283513), wk =   0.0468750
        k(   10) = (   0.0000000   0.1443376  -0.4378018), wk =   0.0234375
        k(   11) = (   0.0000000   0.2886751   0.0000000), wk =   0.0234375
        k(   12) = (   0.0000000   0.2886751   0.1094504), wk =   0.0468750
        k(   13) = (   0.0000000   0.2886751   0.2189009), wk =   0.0468750
        k(   14) = (   0.0000000   0.2886751   0.3283513), wk =   0.0468750
        k(   15) = (   0.0000000   0.2886751  -0.4378018), wk =   0.0234375
        k(   16) = (   0.0000000   0.4330127   0.0000000), wk =   0.0234375
        k(   17) = (   0.0000000   0.4330127   0.1094504), wk =   0.0468750
        k(   18) = (   0.0000000   0.4330127   0.2189009), wk =   0.0468750
        k(   19) = (   0.0000000   0.4330127   0.3283513), wk =   0.0468750
        k(   20) = (   0.0000000   0.4330127  -0.4378018), wk =   0.0234375
        k(   21) = (   0.0000000  -0.5773503   0.0000000), wk =   0.0117188
        k(   22) = (   0.0000000  -0.5773503   0.1094504), wk =   0.0234375
        k(   23) = (   0.0000000  -0.5773503   0.2189009), wk =   0.0234375
        k(   24) = (   0.0000000  -0.5773503   0.3283513), wk =   0.0234375
        k(   25) = (   0.0000000  -0.5773503  -0.4378018), wk =   0.0117188
        k(   26) = (   0.1250000   0.2165064   0.0000000), wk =   0.0234375
        k(   27) = (   0.1250000   0.2165064   0.1094504), wk =   0.0468750
        k(   28) = (   0.1250000   0.2165064   0.2189009), wk =   0.0468750
        k(   29) = (   0.1250000   0.2165064   0.3283513), wk =   0.0468750
        k(   30) = (   0.1250000   0.2165064  -0.4378018), wk =   0.0234375
        k(   31) = (   0.1250000   0.3608439   0.0000000), wk =   0.0468750
        k(   32) = (   0.1250000   0.3608439   0.1094504), wk =   0.0937500
        k(   33) = (   0.1250000   0.3608439   0.2189009), wk =   0.0937500
        k(   34) = (   0.1250000   0.3608439   0.3283513), wk =   0.0937500
        k(   35) = (   0.1250000   0.3608439  -0.4378018), wk =   0.0468750
        k(   36) = (   0.1250000   0.5051815   0.0000000), wk =   0.0468750
        k(   37) = (   0.1250000   0.5051815   0.1094504), wk =   0.0937500
        k(   38) = (   0.1250000   0.5051815   0.2189009), wk =   0.0937500
        k(   39) = (   0.1250000   0.5051815   0.3283513), wk =   0.0937500
        k(   40) = (   0.1250000   0.5051815  -0.4378018), wk =   0.0468750
        k(   41) = (   0.2500000   0.4330127   0.0000000), wk =   0.0234375
        k(   42) = (   0.2500000   0.4330127   0.1094504), wk =   0.0468750
        k(   43) = (   0.2500000   0.4330127   0.2189009), wk =   0.0468750
        k(   44) = (   0.2500000   0.4330127   0.3283513), wk =   0.0468750
        k(   45) = (   0.2500000   0.4330127  -0.4378018), wk =   0.0234375
        k(   46) = (   0.2500000   0.5773503   0.0000000), wk =   0.0234375
        k(   47) = (   0.2500000   0.5773503   0.1094504), wk =   0.0468750
        k(   48) = (   0.2500000   0.5773503   0.2189009), wk =   0.0468750
        k(   49) = (   0.2500000   0.5773503   0.3283513), wk =   0.0468750
        k(   50) = (   0.2500000   0.5773503  -0.4378018), wk =   0.0234375

     Dense  grid:    12303 G-vectors     FFT dimensions: (  30,  30,  36)

     Estimated max dynamical RAM per process >      24.48 MB

     Initial potential from superposition of free atoms

     starting charge      15.9987, renormalised to      16.0000
     Starting wfcs are   13 randomized atomic wfcs

     total cpu time spent up to now is        0.5 secs

     Self-consistent Calculation

     iteration #  1     ecut=    60.00 Ry     beta= 0.70
     Davidson diagonalization with overlap
     ethr =  1.00E-02,  avg # of iterations =  4.1

     total cpu time spent up to now is        1.6 secs

     total energy              =    -130.45208684 Ry
     estimated scf accuracy    <       0.31351205 Ry

     iteration #  2     ecut=    60.00 Ry     beta= 0.70
     Davidson diagonalization with overlap
     ethr =  1.96E-03,  avg # of iterations =  2.5

     total cpu time spent up to now is        2.5 secs

     total energy              =    -130.53652531 Ry
     estimated scf accuracy    <       0.05050848 Ry

     iteration #  3     ecut=    60.00 Ry     beta= 0.70
     Davidson diagonalization with overlap
     ethr =  3.16E-04,  avg # of iterations =  2.3

     total cpu time spent up to now is        3.4 secs

     total energy              =    -130.54612379 Ry
     estimated scf accuracy    <       0.00035020 Ry

     iteration #  4     ecut=    60.00 Ry     beta= 0.70
     Davidson diagonalization with overlap
     ethr =  2.19E-06,  avg # of iterations =  6.4

     total cpu time spent up to now is        4.6 secs

     total energy              =    -130.54620124 Ry
     estimated scf accuracy    <       0.00001035 Ry

     iteration #  5     ecut=    60.00 Ry     beta= 0.70
     Davidson diagonalization with overlap
     ethr =  6.47E-08,  avg # of iterations =  2.1

     total cpu time spent up to now is        5.5 secs

     End of self-consistent calculation

          k = 0.0000 0.0000 0.0000 (  1511 PWs)   bands (ev):

   -66.3005 -32.9077 -32.9077 -32.8947  -3.2277   6.2775   9.5598   9.5598
    10.8758  15.5333  15.5333  17.2948

          k = 0.0000 0.0000 0.1095 (  1517 PWs)   bands (ev):

   -66.3004 -32.9092 -32.9092 -32.8953  -3.0926   5.3060   9.6102   9.6102
    12.1614  15.5784  15.5784  17.2735

          k = 0.0000 0.0000 0.2189 (  1528 PWs)   bands (ev):

   -66.3003 -32.9110 -32.9082 -32.9082  -2.7146   3.6857   9.7367   9.7367
    14.7198  15.6958  15.6958  17.2215

          k = 0.0000 0.0000 0.3284 (  1546 PWs)   bands (ev):

   -66.3003 -32.9197 -32.9168 -32.9168  -2.2135   2.3392   9.8703   9.8703
    15.8210  15.8210  17.1691  17.5292

          k = 0.0000 0.0000-0.4378 (  1552 PWs)   bands (ev):

   -66.3002 -32.9225 -32.9225 -32.9172  -1.9355   1.7704   9.9285   9.9285
    15.8756  15.8756  17.1487  19.0596

          k = 0.0000 0.1443 0.0000 (  1521 PWs)   bands (ev):

   -66.3000 -32.9226 -32.9123 -32.8930  -2.9551   6.5420   8.2955   8.9821
    11.1246  15.2765  16.6585  18.2153

          k = 0.0000 0.1443 0.1095 (  1523 PWs)   bands (ev):

   -66.2999 -32.9233 -32.9128 -32.8932  -2.8220   5.5798   8.3605   9.0297
    12.3850  15.3597  16.7072  17.2019

          k = 0.0000 0.1443 0.2189 (  1540 PWs)   bands (ev):

   -66.2999 -32.9256 -32.9226 -32.9046  -2.4501   3.9725   8.5215   9.1485
    14.7706  15.6821  16.3713  16.8313

          k = 0.0000 0.1443 0.3284 (  1542 PWs)   bands (ev):

   -66.2998 -32.9248 -32.9190 -32.9126  -1.9598   2.6415   8.6979   9.2748
    15.5223  15.8116  16.9686  17.8210

          k = 0.0000 0.1443-0.4378 (  1536 PWs)   bands (ev):

   -66.2997 -32.9216 -32.9182 -32.9082  -1.6898   2.0825   8.7764   9.3293
    15.3795  15.8308  17.0292  19.4024

          k = 0.0000 0.2887 0.0000 (  1524 PWs)   bands (ev):

   -66.2988 -32.9350 -32.9200 -32.8927  -2.1454   5.8172   7.3192   7.9946
    11.8531  14.5552  16.0358  19.2184

          k = 0.0000 0.2887 0.1095 (  1525 PWs)   bands (ev):

   -66.2988 -32.9386 -32.9171 -32.8931  -2.0180   5.8870   6.3990   8.0383
    12.9964  14.6275  15.3405  19.2714

          k = 0.0000 0.2887 0.2189 (  1539 PWs)   bands (ev):

   -66.2987 -32.9398 -32.9264 -32.9065  -1.6641   4.8143   6.1175   8.1471
    13.6296  14.8258  16.0033  19.3974

          k = 0.0000 0.2887 0.3284 (  1544 PWs)   bands (ev):

   -66.2986 -32.9419 -32.9317 -32.9095  -1.2043   3.5309   6.3543   8.2620
    12.7741  15.2577  18.4436  19.4398

          k = 0.0000 0.2887-0.4378 (  1542 PWs)   bands (ev):

   -66.2986 -32.9424 -32.9253 -32.9133  -0.9570   2.9989   6.4653   8.3116
    12.4265  15.4467  19.2438  19.6583

          k = 0.0000 0.4330 0.0000 (  1536 PWs)   bands (ev):

   -66.2977 -32.9579 -32.9276 -32.8926  -0.8265   3.2905   7.2748   8.5148
    12.7927  13.6519  14.1759  17.3918

          k = 0.0000 0.4330 0.1095 (  1539 PWs)   bands (ev):

   -66.2976 -32.9602 -32.9290 -32.8957  -0.7081   3.3852   7.3160   7.6398
    12.4636  13.7536  14.8762  18.3706

          k = 0.0000 0.4330 0.2189 (  1539 PWs)   bands (ev):

   -66.2976 -32.9602 -32.9289 -32.9011  -0.3816   3.6385   6.1513   7.4183
    11.1093  14.3230  16.9973  19.5423

          k = 0.0000 0.4330 0.3284 (  1536 PWs)   bands (ev):

   -66.2975 -32.9588 -32.9287 -32.9019   0.0334   3.9393   4.9322   7.5266
    10.0332  14.8169  18.6010  18.7805

          k = 0.0000 0.4330-0.4378 (  1532 PWs)   bands (ev):

   -66.2974 -32.9573 -32.9226 -32.9041   0.2502   4.0888   4.4317   7.5732
     9.6197  15.0701  18.3269  18.4325

          k = 0.0000-0.5774 0.0000 (  1552 PWs)   bands (ev):

   -66.2972 -32.9727 -32.9354 -32.9003   0.6741   1.3653   7.0216   9.4286
    12.2928  13.1148  14.5581  16.3042

          k = 0.0000-0.5774 0.1095 (  1538 PWs)   bands (ev):

   -66.2972 -32.9652 -32.9294 -32.8961   0.7808   1.4746   7.0616   8.6459
    11.1132  13.6273  15.6564  17.2932

          k = 0.0000-0.5774 0.2189 (  1542 PWs)   bands (ev):

   -66.2971 -32.9675 -32.9331 -32.9001   1.0732   1.7670   7.1620   7.2642
     9.5510  14.1333  17.9665  18.7336

          k = 0.0000-0.5774 0.3284 (  1532 PWs)   bands (ev):

   -66.2970 -32.9655 -32.9208 -32.9047   1.4450   2.1161   6.1237   7.2679
     8.3690  14.6514  18.3820  18.5302

          k = 0.0000-0.5774-0.4378 (  1528 PWs)   bands (ev):

   -66.2970 -32.9636 -32.9193 -32.9047   1.6382   2.2854   5.6626   7.3135
     7.9150  14.9288  17.9774  18.1803

          k = 0.1250 0.2165 0.0000 (  1527 PWs)   bands (ev):

   -66.2992 -32.9297 -32.9190 -32.8969  -2.4139   6.8380   7.0640   7.7303
    11.6726  15.8118  16.6412  16.7356

          k = 0.1250 0.2165 0.1095 (  1527 PWs)   bands (ev):

   -66.2991 -32.9298 -32.9222 -32.8941  -2.2847   6.1164   6.9112   7.7961
    12.8986  15.6889  15.9149  17.1942

          k = 0.1250 0.2165 0.2189 (  1531 PWs)   bands (ev):

   -66.2990 -32.9319 -32.9191 -32.9036  -1.9249   4.5386   7.1027   7.9331
    14.5503  15.2036  16.3166  17.4646

          k = 0.1250 0.2165 0.3284 (  1535 PWs)   bands (ev):

   -66.2990 -32.9348 -32.9210 -32.9081  -1.4552   3.2381   7.3200   8.0761
    13.6838  16.2197  17.6760  17.9653

          k = 0.1250 0.2165-0.4378 (  1542 PWs)   bands (ev):

   -66.2989 -32.9385 -32.9223 -32.9134  -1.2009   2.6970   7.4199   8.1379
    13.3562  16.4100  17.7659  17.9142

          k = 0.1250 0.3608 0.0000 (  1525 PWs)   bands (ev):

   -66.2980 -32.9470 -32.9233 -32.8895  -1.3491   4.6164   6.5498   8.0716
    12.6863  14.5919  15.3898  17.5542

          k = 0.1250 0.3608 0.1095 (  1531 PWs)   bands (ev):

   -66.2980 -32.9471 -32.9236 -32.9000  -1.2271   4.7022   6.5964   7.1863
    13.5129  13.9669  15.6912  18.1679

          k = 0.1250 0.3608 0.2189 (  1529 PWs)   bands (ev):

   -66.2979 -32.9484 -32.9242 -32.8989  -0.8899   4.9261   5.6410   6.7766
    12.2452  15.6303  16.4968  18.0079

          k = 0.1250 0.3608 0.3284 (  1530 PWs)   bands (ev):

   -66.2978 -32.9445 -32.9257 -32.9049  -0.4579   4.3874   5.2084   6.9335
    11.2221  16.0428  16.6972  19.2759

          k = 0.1250 0.3608-0.4378 (  1538 PWs)   bands (ev):

   -66.2978 -32.9478 -32.9277 -32.9130  -0.2302   3.8820   5.3323   7.0049
    10.8324  16.1097  16.4487  19.7418

          k = 0.1250 0.5052 0.0000 (  1550 PWs)   bands (ev):

   -66.2972 -32.9695 -32.9348 -32.9023   0.1842   2.3158   6.0006   9.3355
    12.5984  13.9068  14.8529  16.8617

          k = 0.1250 0.5052 0.1095 (  1541 PWs)   bands (ev):

   -66.2972 -32.9674 -32.9299 -32.8981   0.2957   2.4167   6.0609   8.5096
    11.5696  14.7651  15.5823  17.4773

          k = 0.1250 0.5052 0.2189 (  1535 PWs)   bands (ev):

   -66.2971 -32.9640 -32.9303 -32.8967   0.6017   2.6870   6.2130   7.0826
    10.0796  15.3264  16.8403  17.9268

          k = 0.1250 0.5052 0.3284 (  1535 PWs)   bands (ev):

   -66.2970 -32.9610 -32.9286 -32.9053   0.9862   3.0114   5.9023   6.3940
     8.9416  15.3983  16.2719  20.3879

          k = 0.1250 0.5052-0.4378 (  1528 PWs)   bands (ev):

   -66.2970 -32.9586 -32.9246 -32.9040   1.1839   3.1704   5.4338   6.4684
     8.5022  15.2456  16.2196  21.3432

          k = 0.2500 0.4330 0.0000 (  1541 PWs)   bands (ev):

   -66.2972 -32.9636 -32.9379 -32.8927  -0.0594   3.5056   4.6228   9.2534
    12.9292  13.9294  16.2448  17.5302

          k = 0.2500 0.4330 0.1095 (  1540 PWs)   bands (ev):

   -66.2972 -32.9590 -32.9356 -32.9005   0.0541   3.5989   4.6990   8.3970
    12.0406  15.0621  16.8349  17.2100

          k = 0.2500 0.4330 0.2189 (  1538 PWs)   bands (ev):

   -66.2971 -32.9561 -32.9415 -32.8991   0.3651   3.8489   4.8939   6.9374
    10.6436  15.3909  17.2778  18.6030

          k = 0.2500 0.4330 0.3284 (  1532 PWs)   bands (ev):

   -66.2970 -32.9505 -32.9372 -32.9023   0.7565   4.1515   5.1096   5.7513
     9.5656  14.3204  18.4794  19.3805

          k = 0.2500 0.4330-0.4378 (  1530 PWs)   bands (ev):

   -66.2969 -32.9459 -32.9375 -32.9041   0.9579   4.2997   5.2223   5.2591
     9.1498  13.9256  18.6612  19.6099

          k = 0.2500 0.5774 0.0000 (  1535 PWs)   bands (ev):

   -66.2968 -32.9568 -32.9367 -32.8964   1.3883   2.0036   4.0343  10.3246
    11.6784  15.0509  15.4886  17.8338

          k = 0.2500 0.5774 0.1095 (  1538 PWs)   bands (ev):

   -66.2968 -32.9568 -32.9439 -32.8958   1.4913   2.1055   4.1166   9.5130
    10.7884  16.1542  16.3808  16.5259

          k = 0.2500 0.5774 0.2189 (  1535 PWs)   bands (ev):

   -66.2967 -32.9588 -32.9448 -32.8924   1.7740   2.3798   4.3313   8.1186
     9.3510  14.7391  18.0503  18.3863

          k = 0.2500 0.5774 0.3284 (  1548 PWs)   bands (ev):

   -66.2967 -32.9646 -32.9487 -32.9064   2.1283   2.7100   4.5748   6.9873
     8.2218  13.5861  18.7500  20.7196

          k = 0.2500 0.5774-0.4378 (  1548 PWs)   bands (ev):

   -66.2966 -32.9656 -32.9463 -32.9079   2.3097   2.8716   4.6883   6.5358
     7.7804  13.1681  18.9337  21.9559

     the Fermi energy is     9.2081 ev

!    total energy              =    -130.54620319 Ry
     estimated scf accuracy    <       0.00000023 Ry
     smearing contrib. (-TS)   =      -0.00710925 Ry
     internal energy E=F+TS    =    -130.53909394 Ry

     The total energy is F=E-TS. E is the sum of the following terms:
     one-electron contribution =     -76.35953441 Ry
     hartree contribution      =      40.55105335 Ry
     xc contribution           =     -20.82894798 Ry
     ewald contribution        =     -73.90166489 Ry

     convergence has been achieved in   5 iterations

     Forces acting on atoms (cartesian axes, Ry/au):

     atom    1 type  1   force =     0.00000000    0.00000000    0.00000000
     atom    2 type  2   force =     0.00000000    0.00000000    0.00000000
     atom    3 type  2   force =     0.00000000   -0.00000000   -0.00000000

     Total force =     0.000000     Total SCF correction =     0.000000


     Computing stress (Cartesian axis) and pressure

          total   stress  (Ry/bohr**3)                   (kbar)     P=     -267.03
  -0.00184231   0.00000000   0.00000000         -271.01        0.00        0.00
   0.00000000  -0.00184231  -0.00000000            0.00     -271.01       -0.00
   0.00000000  -0.00000000  -0.00176103            0.00       -0.00     -259.06


     Writing all to output data dir ./tmp/MgB2.save/ :
     XML data file, charge density, pseudopotentials, collected wavefunctions

     init_run     :      0.44s CPU      0.47s WALL (       1 calls)
     electrons    :      4.73s CPU      5.03s WALL (       1 calls)
     forces       :      0.10s CPU      0.10s WALL (       1 calls)
     stress       :      0.35s CPU      0.37s WALL (       1 calls)

     Called by init_run:
     wfcinit      :      0.33s CPU      0.35s WALL (       1 calls)
     potinit      :      0.04s CPU      0.04s WALL (       1 calls)
     hinit0       :      0.07s CPU      0.07s WALL (       1 calls)

     Called by electrons:
     c_bands      :      4.14s CPU      4.41s WALL (       5 calls)
     sum_band     :      0.55s CPU      0.58s WALL (       5 calls)
     v_of_rho     :      0.04s CPU      0.05s WALL (       6 calls)
     mix_rho      :      0.00s CPU      0.00s WALL (       5 calls)

     Called by c_bands:
     init_us_2    :      0.11s CPU      0.12s WALL (     650 calls)
     cegterg      :      4.03s CPU      4.29s WALL (     250 calls)

     Called by *egterg:
     cdiaghg      :      0.09s CPU      0.10s WALL (    1120 calls)
     h_psi        :      3.33s CPU      3.57s WALL (    1170 calls)
     g_psi        :      0.02s CPU      0.02s WALL (     870 calls)

     Called by h_psi:
     h_psi:calbec :      0.26s CPU      0.27s WALL (    1170 calls)
     vloc_psi     :      2.80s CPU      3.01s WALL (    1170 calls)
                                        0.00s GPU  (    1170 calls)
     add_vuspsi   :      0.24s CPU      0.26s WALL (    1170 calls)

     General routines
     calbec       :      0.54s CPU      0.57s WALL (    2020 calls)
     fft          :      0.02s CPU      0.02s WALL (      84 calls)
     ffts         :      0.00s CPU      0.00s WALL (       5 calls)
     fftw         :      2.87s CPU      3.13s WALL (   20322 calls)


     PWSCF        :      5.65s CPU      6.01s WALL


   This run was terminated on:  19:19: 6  10Jan2026            

=------------------------------------------------------------------------------=
   JOB DONE.
=------------------------------------------------------------------------------=
