
     Program PWSCF v.7.5 starts on 10Jan2026 at 19:25:25 

     This program is part of the open-source Quantum ESPRESSO suite
     for quantum simulation of materials; please cite
         "P. Giannozzi et al., J. Phys.:Condens. Matter 21 395502 (2009);
         "P. Giannozzi et al., J. Phys.:Condens. Matter 29 465901 (2017);
         "P. Giannozzi et al., J. Chem. Phys. 152 154105 (2020);
          URL http://www.quantum-espresso.org", 
     in publications or presentations arising from this work. More details at
     http://www.quantum-espresso.org/quote

     Serial version
     1419 MiB available memory on the printing compute node when the environment starts

     Waiting for input...
     Reading input from standard input

     Current dimensions of program PWSCF are:
     Max number of different atomic species (ntypx) = 10
     Max number of k-points (npk) =  40000
     Max angular momentum in pseudopotentials (lmaxx) =  4


     G-vector sticks info
     --------------------
     sticks:   dense  smooth     PW     G-vecs:    dense   smooth      PW
     Sum         847     847    253                22607    22607    3621

     Using Slab Decomposition



     bravais-lattice index     =            4
     lattice parameter (alat)  =       5.8260  a.u.
     unit-cell volume          =     195.5883 (a.u.)^3
     number of atoms/cell      =            3
     number of atomic types    =            2
     number of electrons       =        16.00
     number of Kohn-Sham states=           12
     kinetic-energy cutoff     =      90.0000  Ry
     charge density cutoff     =     360.0000  Ry
     scf convergence threshold =      1.0E-06
     mixing beta               =       0.7000
     number of iterations used =            8  plain     mixing
     Exchange-correlation= PBE
                           (   1   4   3   4   0   0   0)

     celldm(1)=   5.826038  celldm(2)=   0.000000  celldm(3)=   1.142069
     celldm(4)=   0.000000  celldm(5)=   0.000000  celldm(6)=   0.000000

     crystal axes: (cart. coord. in units of alat)
               a(1) = (   1.000000   0.000000   0.000000 )  
               a(2) = (  -0.500000   0.866025   0.000000 )  
               a(3) = (   0.000000   0.000000   1.142069 )  

     reciprocal axes: (cart. coord. in units 2 pi/alat)
               b(1) = (  1.000000  0.577350 -0.000000 )  
               b(2) = (  0.000000  1.154701  0.000000 )  
               b(3) = (  0.000000 -0.000000  0.875604 )  


     PseudoPot. # 1 for Mg read from file:
     ./PSEUDO/Mg_ONCV_PBE_sr.upf
     MD5 check sum: f927bdb32a17e5444945ae8f6d999e45
     Pseudo is Norm-conserving, Zval = 10.0
     Generated using ONCVPSP code by D. R. Hamann
     Using radial grid of 1510 points,  4 beta functions with: 
                l(1) =   0
                l(2) =   0
                l(3) =   1
                l(4) =   1

     PseudoPot. # 2 for B  read from file:
     ./PSEUDO/B_ONCV_PBE_sr.upf
     MD5 check sum: 12e13f68e8dc593c0a1d43390bab284b
     Pseudo is Norm-conserving + core correction, Zval =  3.0
     Generated using ONCVPSP code by D. R. Hamann
     Using radial grid of 1534 points,  4 beta functions with: 
                l(1) =   0
                l(2) =   0
                l(3) =   1
                l(4) =   1

     atomic species   valence    mass     pseudopotential
     Mg               10.00    24.30500     Mg( 1.00)
     B                 3.00    10.81100     B ( 1.00)

     24 Sym. Ops., with inversion, found



   Cartesian axes

     site n.     atom                  positions (alat units)
         1        Mg     tau(   1) = (   0.0000000   0.0000000   0.0000000  )
         2        B      tau(   2) = (   0.0000000   0.5773503   0.5710347  )
         3        B      tau(   3) = (   0.5000000   0.2886751   0.5710347  )

     number of k points=    12  Gaussian smearing, width (Ry)=  0.0400
                       cart. coord. in units 2pi/alat
        k(    1) = (   0.0000000   0.0000000   0.0000000), wk =   0.0312500
        k(    2) = (   0.0000000   0.0000000   0.2189009), wk =   0.0625000
        k(    3) = (   0.0000000   0.0000000  -0.4378018), wk =   0.0312500
        k(    4) = (   0.0000000   0.2886751   0.0000000), wk =   0.1875000
        k(    5) = (   0.0000000   0.2886751   0.2189009), wk =   0.3750000
        k(    6) = (   0.0000000   0.2886751  -0.4378018), wk =   0.1875000
        k(    7) = (   0.0000000  -0.5773503   0.0000000), wk =   0.0937500
        k(    8) = (   0.0000000  -0.5773503   0.2189009), wk =   0.1875000
        k(    9) = (   0.0000000  -0.5773503  -0.4378018), wk =   0.0937500
        k(   10) = (   0.2500000   0.4330127   0.0000000), wk =   0.1875000
        k(   11) = (   0.2500000   0.4330127   0.2189009), wk =   0.3750000
        k(   12) = (   0.2500000   0.4330127  -0.4378018), wk =   0.1875000

     Dense  grid:    22607 G-vectors     FFT dimensions: (  36,  36,  45)

     Estimated max dynamical RAM per process >      24.81 MB

     Initial potential from superposition of free atoms

     starting charge      15.9987, renormalised to      16.0000
     Starting wfcs are   13 randomized atomic wfcs

     total cpu time spent up to now is        0.3 secs

     Self-consistent Calculation

     iteration #  1     ecut=    90.00 Ry     beta= 0.70
     Davidson diagonalization with overlap
     ethr =  1.00E-02,  avg # of iterations =  3.8

     total cpu time spent up to now is        0.8 secs

     total energy              =    -130.48862147 Ry
     estimated scf accuracy    <       0.31364027 Ry

     iteration #  2     ecut=    90.00 Ry     beta= 0.70
     Davidson diagonalization with overlap
     ethr =  1.96E-03,  avg # of iterations =  2.5

     total cpu time spent up to now is        1.2 secs

     total energy              =    -130.57652996 Ry
     estimated scf accuracy    <       0.05171572 Ry

     iteration #  3     ecut=    90.00 Ry     beta= 0.70
     Davidson diagonalization with overlap
     ethr =  3.23E-04,  avg # of iterations =  2.2

     total cpu time spent up to now is        1.5 secs

     total energy              =    -130.58518705 Ry
     estimated scf accuracy    <       0.00033483 Ry

     iteration #  4     ecut=    90.00 Ry     beta= 0.70
     Davidson diagonalization with overlap
     ethr =  2.09E-06,  avg # of iterations =  6.4

     total cpu time spent up to now is        2.0 secs

     total energy              =    -130.58528538 Ry
     estimated scf accuracy    <       0.00003564 Ry

     iteration #  5     ecut=    90.00 Ry     beta= 0.70
     Davidson diagonalization with overlap
     ethr =  2.23E-07,  avg # of iterations =  2.8

     total cpu time spent up to now is        2.4 secs

     End of self-consistent calculation

          k = 0.0000 0.0000 0.0000 (  2835 PWs)   bands (ev):

   -66.0212 -32.8004 -32.8004 -32.7860  -3.2452   6.2537   9.5226   9.5226
    10.8862  15.4865  15.4865  17.2852

          k = 0.0000 0.0000 0.2189 (  2816 PWs)   bands (ev):

   -66.0211 -32.8001 -32.8001 -32.7897  -2.7361   3.6807   9.6985   9.6985
    14.7174  15.6520  15.6520  17.2108

          k = 0.0000 0.0000-0.4378 (  2804 PWs)   bands (ev):

   -66.0210 -32.7999 -32.7999 -32.7933  -1.9667   1.7790   9.8894   9.8894
    15.8371  15.8371  17.1362  19.0396

          k = 0.0000 0.2887 0.0000 (  2817 PWs)   bands (ev):

   -66.0195 -32.8200 -32.8052 -32.7831  -2.1651   5.7860   7.2970   7.9561
    11.8531  14.5385  16.0155  18.4759

          k = 0.0000 0.2887 0.2189 (  2820 PWs)   bands (ev):

   -66.0194 -32.8196 -32.8049 -32.7866  -1.6872   4.8067   6.0853   8.1085
    13.6205  14.7983  15.9976  19.3512

          k = 0.0000 0.2887-0.4378 (  2814 PWs)   bands (ev):

   -66.0193 -32.8192 -32.8046 -32.7901  -0.9885   3.0029   6.4298   8.2731
    12.4210  15.4112  19.2406  19.6172

          k = 0.0000-0.5774 0.0000 (  2820 PWs)   bands (ev):

   -66.0178 -32.8394 -32.8099 -32.7802   0.6490   1.3415   6.9831   9.4138
    12.2695  13.1016  14.5421  16.3140

          k = 0.0000-0.5774 0.2189 (  2822 PWs)   bands (ev):

   -66.0177 -32.8390 -32.8096 -32.7836   1.0469   1.7383   7.1236   7.2509
     9.5458  14.1137  17.9460  18.7331

          k = 0.0000-0.5774-0.4378 (  2836 PWs)   bands (ev):

   -66.0176 -32.8385 -32.8092 -32.7869   1.6093   2.2489   5.6520   7.2748
     7.9223  14.8948  17.9846  18.1376

          k = 0.2500 0.4330 0.0000 (  2813 PWs)   bands (ev):

   -66.0178 -32.8321 -32.8173 -32.7802  -0.0826   3.4776   4.5917   9.2358
    12.9129  13.9223  16.2326  17.5155

          k = 0.2500 0.4330 0.2189 (  2811 PWs)   bands (ev):

   -66.0177 -32.8316 -32.8169 -32.7836   0.3391   3.8196   4.8591   6.9271
    10.6317  15.3907  17.2573  18.5791

          k = 0.2500 0.4330-0.4378 (  2826 PWs)   bands (ev):

   -66.0176 -32.8312 -32.8166 -32.7869   0.9262   4.2677   5.1835   5.2539
     9.1409  13.9332  18.6158  19.5776

     the Fermi energy is     9.4046 ev

!    total energy              =    -130.58529286 Ry
     estimated scf accuracy    <       0.00000016 Ry
     smearing contrib. (-TS)   =      -0.00874711 Ry
     internal energy E=F+TS    =    -130.57654574 Ry

     The total energy is F=E-TS. E is the sum of the following terms:
     one-electron contribution =     -76.51024064 Ry
     hartree contribution      =      40.67518072 Ry
     xc contribution           =     -20.83982095 Ry
     ewald contribution        =     -73.90166488 Ry

     convergence has been achieved in   5 iterations

     Forces acting on atoms (cartesian axes, Ry/au):

     atom    1 type  1   force =    -0.00000000   -0.00000000    0.00000000
     atom    2 type  2   force =     0.00000000   -0.00000000   -0.00000000
     atom    3 type  2   force =    -0.00000000    0.00000000   -0.00000000

     Total force =     0.000000     Total SCF correction =     0.000000


     Computing stress (Cartesian axis) and pressure

          total   stress  (Ry/bohr**3)                   (kbar)     P=      -10.90
  -0.00013315  -0.00000000   0.00000000          -19.59       -0.00        0.00
  -0.00000000  -0.00013315   0.00000000           -0.00      -19.59        0.00
   0.00000000   0.00000000   0.00004402            0.00        0.00        6.48


     Writing all to output data dir ./tmp/MgB2.save/ :
     XML data file, charge density, pseudopotentials, collected wavefunctions

     init_run     :      0.28s CPU      0.30s WALL (       1 calls)
     electrons    :      1.93s CPU      2.04s WALL (       1 calls)
     forces       :      0.05s CPU      0.06s WALL (       1 calls)
     stress       :      0.19s CPU      0.20s WALL (       1 calls)

     Called by init_run:
     wfcinit      :      0.14s CPU      0.15s WALL (       1 calls)
     potinit      :      0.05s CPU      0.06s WALL (       1 calls)
     hinit0       :      0.08s CPU      0.08s WALL (       1 calls)

     Called by electrons:
     c_bands      :      1.65s CPU      1.73s WALL (       5 calls)
     sum_band     :      0.21s CPU      0.23s WALL (       5 calls)
     v_of_rho     :      0.07s CPU      0.09s WALL (       6 calls)
     mix_rho      :      0.00s CPU      0.01s WALL (       5 calls)

     Called by c_bands:
     init_us_2    :      0.05s CPU      0.05s WALL (     156 calls)
     cegterg      :      1.60s CPU      1.68s WALL (      60 calls)

     Called by *egterg:
     cdiaghg      :      0.02s CPU      0.02s WALL (     272 calls)
     h_psi        :      1.33s CPU      1.40s WALL (     284 calls)
     g_psi        :      0.01s CPU      0.01s WALL (     212 calls)

     Called by h_psi:
     h_psi:calbec :      0.11s CPU      0.12s WALL (     284 calls)
     vloc_psi     :      1.10s CPU      1.16s WALL (     284 calls)
                                        0.00s GPU  (     284 calls)
     add_vuspsi   :      0.10s CPU      0.11s WALL (     284 calls)

     General routines
     calbec       :      0.24s CPU      0.25s WALL (     488 calls)
     fft          :      0.03s CPU      0.04s WALL (      84 calls)
     ffts         :      0.00s CPU      0.00s WALL (       5 calls)
     fftw         :      1.12s CPU      1.20s WALL (    4854 calls)


     PWSCF        :      2.48s CPU      2.64s WALL


   This run was terminated on:  19:25:27  10Jan2026            

=------------------------------------------------------------------------------=
   JOB DONE.
=------------------------------------------------------------------------------=
