
     Program PWSCF v.7.5 starts on 10Jan2026 at 19:18:55 

     This program is part of the open-source Quantum ESPRESSO suite
     for quantum simulation of materials; please cite
         "P. Giannozzi et al., J. Phys.:Condens. Matter 21 395502 (2009);
         "P. Giannozzi et al., J. Phys.:Condens. Matter 29 465901 (2017);
         "P. Giannozzi et al., J. Chem. Phys. 152 154105 (2020);
          URL http://www.quantum-espresso.org", 
     in publications or presentations arising from this work. More details at
     http://www.quantum-espresso.org/quote

     Serial version
     1162 MiB available memory on the printing compute node when the environment starts

     Waiting for input...
     Reading input from standard input

     Current dimensions of program PWSCF are:
     Max number of different atomic species (ntypx) = 10
     Max number of k-points (npk) =  40000
     Max angular momentum in pseudopotentials (lmaxx) =  4


     G-vector sticks info
     --------------------
     sticks:   dense  smooth     PW     G-vecs:    dense   smooth      PW
     Sum         187     187     61                 2377     2377     467

     Using Slab Decomposition



     bravais-lattice index     =            4
     lattice parameter (alat)  =       5.8260  a.u.
     unit-cell volume          =     195.5883 (a.u.)^3
     number of atoms/cell      =            3
     number of atomic types    =            2
     number of electrons       =        16.00
     number of Kohn-Sham states=           12
     kinetic-energy cutoff     =      20.0000  Ry
     charge density cutoff     =      80.0000  Ry
     scf convergence threshold =      1.0E-06
     mixing beta               =       0.7000
     number of iterations used =            8  plain     mixing
     Exchange-correlation= PBE
                           (   1   4   3   4   0   0   0)

     celldm(1)=   5.826038  celldm(2)=   0.000000  celldm(3)=   1.142069
     celldm(4)=   0.000000  celldm(5)=   0.000000  celldm(6)=   0.000000

     crystal axes: (cart. coord. in units of alat)
               a(1) = (   1.000000   0.000000   0.000000 )  
               a(2) = (  -0.500000   0.866025   0.000000 )  
               a(3) = (   0.000000   0.000000   1.142069 )  

     reciprocal axes: (cart. coord. in units 2 pi/alat)
               b(1) = (  1.000000  0.577350 -0.000000 )  
               b(2) = (  0.000000  1.154701  0.000000 )  
               b(3) = (  0.000000 -0.000000  0.875604 )  


     PseudoPot. # 1 for Mg read from file:
     ./PSEUDO/Mg_ONCV_PBE_sr.upf
     MD5 check sum: f927bdb32a17e5444945ae8f6d999e45
     Pseudo is Norm-conserving, Zval = 10.0
     Generated using ONCVPSP code by D. R. Hamann
     Using radial grid of 1510 points,  4 beta functions with: 
                l(1) =   0
                l(2) =   0
                l(3) =   1
                l(4) =   1

     PseudoPot. # 2 for B  read from file:
     ./PSEUDO/B_ONCV_PBE_sr.upf
     MD5 check sum: 12e13f68e8dc593c0a1d43390bab284b
     Pseudo is Norm-conserving + core correction, Zval =  3.0
     Generated using ONCVPSP code by D. R. Hamann
     Using radial grid of 1534 points,  4 beta functions with: 
                l(1) =   0
                l(2) =   0
                l(3) =   1
                l(4) =   1

     atomic species   valence    mass     pseudopotential
     Mg               10.00    24.30500     Mg( 1.00)
     B                 3.00    10.81100     B ( 1.00)

     24 Sym. Ops., with inversion, found



   Cartesian axes

     site n.     atom                  positions (alat units)
         1        Mg     tau(   1) = (   0.0000000   0.0000000   0.0000000  )
         2        B      tau(   2) = (   0.0000000   0.5773503   0.5710347  )
         3        B      tau(   3) = (   0.5000000   0.2886751   0.5710347  )

     number of k points=    50  Gaussian smearing, width (Ry)=  0.0400
                       cart. coord. in units 2pi/alat
        k(    1) = (   0.0000000   0.0000000   0.0000000), wk =   0.0039062
        k(    2) = (   0.0000000   0.0000000   0.1094504), wk =   0.0078125
        k(    3) = (   0.0000000   0.0000000   0.2189009), wk =   0.0078125
        k(    4) = (   0.0000000   0.0000000   0.3283513), wk =   0.0078125
        k(    5) = (   0.0000000   0.0000000  -0.4378018), wk =   0.0039062
        k(    6) = (   0.0000000   0.1443376   0.0000000), wk =   0.0234375
        k(    7) = (   0.0000000   0.1443376   0.1094504), wk =   0.0468750
        k(    8) = (   0.0000000   0.1443376   0.2189009), wk =   0.0468750
        k(    9) = (   0.0000000   0.1443376   0.3283513), wk =   0.0468750
        k(   10) = (   0.0000000   0.1443376  -0.4378018), wk =   0.0234375
        k(   11) = (   0.0000000   0.2886751   0.0000000), wk =   0.0234375
        k(   12) = (   0.0000000   0.2886751   0.1094504), wk =   0.0468750
        k(   13) = (   0.0000000   0.2886751   0.2189009), wk =   0.0468750
        k(   14) = (   0.0000000   0.2886751   0.3283513), wk =   0.0468750
        k(   15) = (   0.0000000   0.2886751  -0.4378018), wk =   0.0234375
        k(   16) = (   0.0000000   0.4330127   0.0000000), wk =   0.0234375
        k(   17) = (   0.0000000   0.4330127   0.1094504), wk =   0.0468750
        k(   18) = (   0.0000000   0.4330127   0.2189009), wk =   0.0468750
        k(   19) = (   0.0000000   0.4330127   0.3283513), wk =   0.0468750
        k(   20) = (   0.0000000   0.4330127  -0.4378018), wk =   0.0234375
        k(   21) = (   0.0000000  -0.5773503   0.0000000), wk =   0.0117188
        k(   22) = (   0.0000000  -0.5773503   0.1094504), wk =   0.0234375
        k(   23) = (   0.0000000  -0.5773503   0.2189009), wk =   0.0234375
        k(   24) = (   0.0000000  -0.5773503   0.3283513), wk =   0.0234375
        k(   25) = (   0.0000000  -0.5773503  -0.4378018), wk =   0.0117188
        k(   26) = (   0.1250000   0.2165064   0.0000000), wk =   0.0234375
        k(   27) = (   0.1250000   0.2165064   0.1094504), wk =   0.0468750
        k(   28) = (   0.1250000   0.2165064   0.2189009), wk =   0.0468750
        k(   29) = (   0.1250000   0.2165064   0.3283513), wk =   0.0468750
        k(   30) = (   0.1250000   0.2165064  -0.4378018), wk =   0.0234375
        k(   31) = (   0.1250000   0.3608439   0.0000000), wk =   0.0468750
        k(   32) = (   0.1250000   0.3608439   0.1094504), wk =   0.0937500
        k(   33) = (   0.1250000   0.3608439   0.2189009), wk =   0.0937500
        k(   34) = (   0.1250000   0.3608439   0.3283513), wk =   0.0937500
        k(   35) = (   0.1250000   0.3608439  -0.4378018), wk =   0.0468750
        k(   36) = (   0.1250000   0.5051815   0.0000000), wk =   0.0468750
        k(   37) = (   0.1250000   0.5051815   0.1094504), wk =   0.0937500
        k(   38) = (   0.1250000   0.5051815   0.2189009), wk =   0.0937500
        k(   39) = (   0.1250000   0.5051815   0.3283513), wk =   0.0937500
        k(   40) = (   0.1250000   0.5051815  -0.4378018), wk =   0.0468750
        k(   41) = (   0.2500000   0.4330127   0.0000000), wk =   0.0234375
        k(   42) = (   0.2500000   0.4330127   0.1094504), wk =   0.0468750
        k(   43) = (   0.2500000   0.4330127   0.2189009), wk =   0.0468750
        k(   44) = (   0.2500000   0.4330127   0.3283513), wk =   0.0468750
        k(   45) = (   0.2500000   0.4330127  -0.4378018), wk =   0.0234375
        k(   46) = (   0.2500000   0.5773503   0.0000000), wk =   0.0234375
        k(   47) = (   0.2500000   0.5773503   0.1094504), wk =   0.0468750
        k(   48) = (   0.2500000   0.5773503   0.2189009), wk =   0.0468750
        k(   49) = (   0.2500000   0.5773503   0.3283513), wk =   0.0468750
        k(   50) = (   0.2500000   0.5773503  -0.4378018), wk =   0.0234375

     Dense  grid:     2377 G-vectors     FFT dimensions: (  18,  18,  20)

     Estimated max dynamical RAM per process >       5.03 MB

     Check: negative core charge=   -0.000001

     Initial potential from superposition of free atoms

     starting charge      15.9987, renormalised to      16.0000

     negative rho (up, down):  1.103E-04 0.000E+00
     Starting wfcs are   13 randomized atomic wfcs

     total cpu time spent up to now is        0.4 secs

     Self-consistent Calculation

     iteration #  1     ecut=    20.00 Ry     beta= 0.70
     Davidson diagonalization with overlap
     ethr =  1.00E-02,  avg # of iterations =  3.4

     total cpu time spent up to now is        0.9 secs

     total energy              =    -118.75562224 Ry
     estimated scf accuracy    <       4.17505167 Ry

     iteration #  2     ecut=    20.00 Ry     beta= 0.70
     Davidson diagonalization with overlap
     ethr =  1.00E-02,  avg # of iterations =  2.3

     total cpu time spent up to now is        1.4 secs

     total energy              =    -119.36883147 Ry
     estimated scf accuracy    <       0.19588253 Ry

     iteration #  3     ecut=    20.00 Ry     beta= 0.70
     Davidson diagonalization with overlap
     ethr =  1.22E-03,  avg # of iterations =  2.1

     total cpu time spent up to now is        1.8 secs

     total energy              =    -119.40259877 Ry
     estimated scf accuracy    <       0.02475351 Ry

     iteration #  4     ecut=    20.00 Ry     beta= 0.70
     Davidson diagonalization with overlap
     ethr =  1.55E-04,  avg # of iterations =  2.6

     total cpu time spent up to now is        2.0 secs

     total energy              =    -119.40642796 Ry
     estimated scf accuracy    <       0.00039280 Ry

     iteration #  5     ecut=    20.00 Ry     beta= 0.70
     Davidson diagonalization with overlap
     ethr =  2.45E-06,  avg # of iterations =  5.0

     total cpu time spent up to now is        2.3 secs

     total energy              =    -119.40646055 Ry
     estimated scf accuracy    <       0.00000409 Ry

     iteration #  6     ecut=    20.00 Ry     beta= 0.70
     Davidson diagonalization with overlap
     ethr =  2.56E-08,  avg # of iterations =  2.2

     total cpu time spent up to now is        2.5 secs

     End of self-consistent calculation

          k = 0.0000 0.0000 0.0000 (   291 PWs)   bands (ev):

   -89.2330 -28.3494 -26.7622 -26.7622  -2.9365   7.4825  10.6258  10.6258
    10.7898  16.9728  16.9728  18.0004

          k = 0.0000 0.0000 0.1095 (   297 PWs)   bands (ev):

   -89.4459 -29.5063 -27.0019 -27.0019  -2.7661   6.1557  10.6758  10.6758
    12.3655  16.9231  16.9231  18.0053

          k = 0.0000 0.0000 0.2189 (   273 PWs)   bands (ev):

   -88.6197 -26.5822 -25.2429 -25.2429  -2.1665   4.3419  10.8575  10.8575
    15.3148  16.8684  16.8684  18.1077

          k = 0.0000 0.0000 0.3284 (   274 PWs)   bands (ev):

   -88.6643 -26.8580 -25.2847 -25.2847  -1.4495   2.6744  11.0157  11.0157
    16.7442  16.7442  18.1530  18.2423

          k = 0.0000 0.0000-0.4378 (   286 PWs)   bands (ev):

   -89.0877 -28.8552 -25.8979 -25.8979  -1.0324   1.8265  11.0823  11.0823
    16.6869  16.6869  18.2266  19.8264

          k = 0.0000 0.1443 0.0000 (   299 PWs)   bands (ev):

   -89.5372 -28.7093 -28.0832 -27.4639  -2.6373   7.7086   9.2705  10.0494
    11.1329  16.1224  18.0712  18.7019

          k = 0.0000 0.1443 0.1095 (   296 PWs)   bands (ev):

   -89.4478 -28.3084 -27.6851 -27.4277  -2.4407   6.4845   9.3453  10.0875
    12.7219  16.1884  18.0307  18.1970

          k = 0.0000 0.1443 0.2189 (   288 PWs)   bands (ev):

   -89.1737 -27.6259 -27.0475 -26.5510  -1.9049   4.6270   9.5004  10.2232
    15.4188  16.4587  17.4251  17.9927

          k = 0.0000 0.1443 0.3284 (   288 PWs)   bands (ev):

   -89.1878 -27.5443 -26.9280 -26.8515  -1.2005   3.0053   9.6832  10.3438
    16.3518  16.8459  17.9174  18.4115

          k = 0.0000 0.1443-0.4378 (   286 PWs)   bands (ev):

   -89.1239 -27.9259 -26.8242 -26.0239  -0.7439   2.2213   9.7578  10.4059
    16.2781  16.7580  17.9188  19.8910

          k = 0.0000 0.2887 0.0000 (   299 PWs)   bands (ev):

   -89.6175 -28.2978 -28.1675 -28.1281  -1.6966   6.7079   8.4969   9.0900
    12.1787  14.8498  17.1348  19.4595

          k = 0.0000 0.2887 0.1095 (   295 PWs)   bands (ev):

   -89.4646 -28.0741 -27.7625 -27.6527  -1.5337   6.7594   7.3255   9.1266
    13.5370  15.0110  16.3660  20.6015

          k = 0.0000 0.2887 0.2189 (   298 PWs)   bands (ev):

   -89.5767 -28.5453 -28.1159 -27.7129  -1.0870   5.4901   6.9848   9.1902
    14.4019  15.7238  16.4197  20.5317

          k = 0.0000 0.2887 0.3284 (   295 PWs)   bands (ev):

   -89.4749 -28.4558 -27.7861 -27.3044  -0.4452   4.0097   7.2145   9.2794
    13.6860  16.1288  18.6719  20.5686

          k = 0.0000 0.2887-0.4378 (   294 PWs)   bands (ev):

   -89.4289 -28.3973 -27.5611 -27.2313  -0.0749   3.3508   7.3300   9.3080
    13.3221  16.4216  19.2891  20.6376

          k = 0.0000 0.4330 0.0000 (   301 PWs)   bands (ev):

   -89.7251 -28.6936 -28.5232 -28.2827  -0.2585   4.0449   8.3914   9.4949
    13.5930  14.1744  14.8205  18.2737

          k = 0.0000 0.4330 0.1095 (   297 PWs)   bands (ev):

   -89.5722 -28.5202 -28.3795 -27.4074  -0.1059   4.1580   8.4214   8.6343
    13.2547  14.3149  15.5065  19.3485

          k = 0.0000 0.4330 0.2189 (   293 PWs)   bands (ev):

   -89.4214 -28.0647 -27.7964 -27.2822   0.2796   4.4120   7.0605   8.4684
    11.9405  14.7770  17.6308  20.7417

          k = 0.0000 0.4330 0.3284 (   296 PWs)   bands (ev):

   -89.5045 -28.5115 -27.9926 -27.3657   0.7877   4.7031   5.7708   8.5155
    10.7789  15.5694  18.4752  21.1801

          k = 0.0000 0.4330-0.4378 (   302 PWs)   bands (ev):

   -89.7246 -29.1406 -28.2587 -28.1819   1.0401   4.9219   5.0997   8.5227
    10.3423  16.0573  17.9586  20.8995

          k = 0.0000-0.5774 0.0000 (   300 PWs)   bands (ev):

   -89.6973 -29.1807 -28.1280 -27.9682   1.6415   1.7310   8.1738  10.2142
    13.5516  13.6604  15.7155  16.3586

          k = 0.0000-0.5774 0.1095 (   298 PWs)   bands (ev):

   -89.6205 -29.0149 -28.0695 -27.6313   1.6947   1.9149   8.1696   9.6133
    12.0276  13.8923  17.2740  17.3680

          k = 0.0000-0.5774 0.2189 (   302 PWs)   bands (ev):

   -89.7464 -29.3047 -28.2148 -28.2099   1.8763   2.3574   8.1973   8.4407
    10.0400  14.4233  18.7820  19.6043

          k = 0.0000-0.5774 0.3284 (   300 PWs)   bands (ev):

   -89.6414 -28.5337 -28.2648 -28.1547   2.1240   2.9413   7.5559   8.2468
     8.5442  15.3012  18.2396  21.0658

          k = 0.0000-0.5774-0.4378 (   300 PWs)   bands (ev):

   -89.6476 -28.7331 -28.4088 -27.8860   2.2195   3.2678   7.1928   7.8831
     8.2560  15.9897  17.4249  20.7775

          k = 0.1250 0.2165 0.0000 (   294 PWs)   bands (ev):

   -89.4166 -27.9218 -27.8572 -27.3278  -1.9980   7.7753   8.2538   8.7806
    11.8678  16.3672  17.5102  17.8410

          k = 0.1250 0.2165 0.1095 (   294 PWs)   bands (ev):

   -89.4257 -27.9576 -27.8090 -27.3796  -1.8321   7.0543   7.8536   8.8493
    13.3333  16.4897  16.5766  18.3691

          k = 0.1250 0.2165 0.2189 (   294 PWs)   bands (ev):

   -89.4302 -28.6742 -27.2797 -27.2505  -1.3501   5.2102   8.0070   8.9645
    15.4639  15.8761  16.8661  18.5755

          k = 0.1250 0.2165 0.3284 (   294 PWs)   bands (ev):

   -89.4246 -28.1818 -27.6287 -27.3524  -0.6980   3.6821   8.1889   9.0760
    14.6387  17.2428  18.1679  18.5486

          k = 0.1250 0.2165-0.4378 (   294 PWs)   bands (ev):

   -89.4165 -27.8610 -27.6895 -27.5475  -0.2909   2.9755   8.2778   9.1461
    14.3298  17.5356  18.5749  18.5884

          k = 0.1250 0.3608 0.0000 (   290 PWs)   bands (ev):

   -89.3257 -27.6647 -27.5726 -27.0876  -0.7974   5.5076   7.5566   9.1784
    13.2318  15.6192  15.7640  18.3299

          k = 0.1250 0.3608 0.1095 (   295 PWs)   bands (ev):

   -89.5018 -28.4585 -27.9313 -27.3491  -0.6674   5.5537   7.5896   8.1254
    14.1405  14.9370  16.0236  19.0344

          k = 0.1250 0.3608 0.2189 (   294 PWs)   bands (ev):

   -89.4566 -28.5177 -27.5842 -27.3365  -0.2616   5.7310   6.4486   7.7637
    13.1977  16.2045  16.7376  19.6922

          k = 0.1250 0.3608 0.3284 (   297 PWs)   bands (ev):

   -89.5455 -28.6718 -28.0187 -27.4627   0.2964   4.9987   6.0229   7.9122
    12.2321  16.4325  17.5520  20.4835

          k = 0.1250 0.3608-0.4378 (   298 PWs)   bands (ev):

   -89.5799 -28.9051 -28.4518 -27.0856   0.5998   4.4047   6.1234   7.9747
    11.8272  16.4734  17.5360  20.8061

          k = 0.1250 0.5052 0.0000 (   298 PWs)   bands (ev):

   -89.6552 -29.0448 -28.1690 -27.6838   0.8525   3.0168   6.9764  10.1978
    13.7427  14.7940  15.4317  17.2739

          k = 0.1250 0.5052 0.1095 (   294 PWs)   bands (ev):

   -89.5003 -28.7500 -27.7626 -27.1850   0.9893   3.1354   7.0497   9.4867
    12.4888  15.3626  16.2564  18.1497

          k = 0.1250 0.5052 0.2189 (   297 PWs)   bands (ev):

   -89.5705 -28.9165 -27.8821 -27.5205   1.3141   3.4191   7.1755   8.1130
    10.8792  15.4881  17.4508  19.6672

          k = 0.1250 0.5052 0.3284 (   296 PWs)   bands (ev):

   -89.4970 -28.5798 -27.8682 -27.4053   1.7158   3.7993   6.9672   7.3709
     9.6456  15.4321  17.4128  22.0554

          k = 0.1250 0.5052-0.4378 (   298 PWs)   bands (ev):

   -89.5587 -28.5211 -28.0395 -27.7798   1.9017   4.0405   6.5266   7.4208
     9.1456  15.3479  17.3281  23.7832

          k = 0.2500 0.4330 0.0000 (   288 PWs)   bands (ev):

   -89.2858 -28.1727 -27.3318 -26.5760   0.6108   4.4490   5.4034  10.2351
    13.8247  14.8075  17.2340  17.6146

          k = 0.2500 0.4330 0.1095 (   298 PWs)   bands (ev):

   -89.6359 -28.5853 -28.1723 -28.0236   0.7184   4.4584   5.4736   9.3556
    13.0023  15.5631  17.2933  18.1481

          k = 0.2500 0.4330 0.2189 (   295 PWs)   bands (ev):

   -89.5058 -28.2771 -28.1459 -27.3943   1.0599   4.6502   5.7440   7.9172
    11.7496  15.1989  18.4409  19.5723

          k = 0.2500 0.4330 0.3284 (   296 PWs)   bands (ev):

   -89.5062 -28.4540 -27.9562 -27.4941   1.4993   4.8877   6.0439   6.7526
    10.7777  14.0797  19.7515  20.3765

          k = 0.2500 0.4330-0.4378 (   304 PWs)   bands (ev):

   -89.7741 -28.7318 -28.6770 -28.6404   1.6991   4.9902   6.1444   6.2551
    10.3619  13.5637  20.0907  20.5770

          k = 0.2500 0.5774 0.0000 (   298 PWs)   bands (ev):

   -89.6619 -29.5834 -27.7966 -27.6350   2.2967   2.6182   4.7642  11.1350
    12.6043  16.4244  16.6406  17.3617

          k = 0.2500 0.5774 0.1095 (   301 PWs)   bands (ev):

   -89.7536 -29.0078 -28.6378 -28.0718   2.3733   2.7400   4.8408  10.4784
    11.7428  16.2182  17.5228  17.6540

          k = 0.2500 0.5774 0.2189 (   301 PWs)   bands (ev):

   -89.7028 -28.7981 -28.5771 -28.0476   2.5574   3.0887   5.1506   9.3133
    10.3686  14.4180  19.0213  19.8143

          k = 0.2500 0.5774 0.3284 (   298 PWs)   bands (ev):

   -89.5639 -28.4553 -28.0275 -27.9157   2.8047   3.5038   5.5559   8.3769
     9.2400  13.0395  19.9486  22.1516

          k = 0.2500 0.5774-0.4378 (   290 PWs)   bands (ev):

   -89.2740 -27.5685 -27.4038 -27.1903   2.9277   3.7117   5.7634   8.0766
     8.7824  12.5612  20.2676  23.2263

     the Fermi energy is    10.1657 ev

!    total energy              =    -119.40646135 Ry
     estimated scf accuracy    <       0.00000008 Ry
     smearing contrib. (-TS)   =      -0.00683516 Ry
     internal energy E=F+TS    =    -119.39962619 Ry

     The total energy is F=E-TS. E is the sum of the following terms:
     one-electron contribution =     -55.06926192 Ry
     hartree contribution      =      28.02334125 Ry
     xc contribution           =     -18.45204061 Ry
     ewald contribution        =     -73.90166491 Ry

     convergence has been achieved in   6 iterations

     Forces acting on atoms (cartesian axes, Ry/au):

     atom    1 type  1   force =    -0.00000000   -0.00000000    0.00000000
     atom    2 type  2   force =     0.00000000   -0.00000000    0.00000000
     atom    3 type  2   force =    -0.00000000   -0.00000000    0.00000000

     Total force =     0.000000     Total SCF correction =     0.000000


     Computing stress (Cartesian axis) and pressure

          total   stress  (Ry/bohr**3)                   (kbar)     P=   -10634.46
  -0.07236232   0.00000000   0.00000000       -10644.86        0.00        0.00
   0.00000000  -0.07236232   0.00000000            0.00   -10644.86        0.00
   0.00000000   0.00000000  -0.07215009            0.00        0.00   -10613.65


     Writing all to output data dir ./tmp/MgB2.save/ :
     XML data file, charge density, pseudopotentials, collected wavefunctions

     init_run     :      0.27s CPU      0.30s WALL (       1 calls)
     electrons    :      1.80s CPU      2.10s WALL (       1 calls)
     forces       :      0.02s CPU      0.02s WALL (       1 calls)
     stress       :      0.07s CPU      0.07s WALL (       1 calls)

     Called by init_run:
     wfcinit      :      0.14s CPU      0.17s WALL (       1 calls)
     potinit      :      0.04s CPU      0.04s WALL (       1 calls)
     hinit0       :      0.08s CPU      0.09s WALL (       1 calls)

     Called by electrons:
     c_bands      :      1.59s CPU      1.85s WALL (       6 calls)
     sum_band     :      0.20s CPU      0.23s WALL (       6 calls)
     v_of_rho     :      0.01s CPU      0.02s WALL (       7 calls)
     mix_rho      :      0.00s CPU      0.00s WALL (       6 calls)

     Called by c_bands:
     init_us_2    :      0.03s CPU      0.04s WALL (     750 calls)
     cegterg      :      1.56s CPU      1.80s WALL (     300 calls)

     Called by *egterg:
     cdiaghg      :      0.12s CPU      0.15s WALL (    1178 calls)
     h_psi        :      1.25s CPU      1.46s WALL (    1228 calls)
     g_psi        :      0.01s CPU      0.01s WALL (     878 calls)

     Called by h_psi:
     h_psi:calbec :      0.09s CPU      0.10s WALL (    1228 calls)
     vloc_psi     :      1.06s CPU      1.24s WALL (    1228 calls)
                                        0.00s GPU  (    1228 calls)
     add_vuspsi   :      0.08s CPU      0.09s WALL (    1228 calls)

     General routines
     calbec       :      0.14s CPU      0.16s WALL (    2078 calls)
     fft          :      0.01s CPU      0.01s WALL (      94 calls)
     ffts         :      0.00s CPU      0.00s WALL (       6 calls)
     fftw         :      1.02s CPU      1.28s WALL (   23406 calls)


     PWSCF        :      2.21s CPU      2.57s WALL


   This run was terminated on:  19:18:58  10Jan2026            

=------------------------------------------------------------------------------=
   JOB DONE.
=------------------------------------------------------------------------------=
