
     Program PWSCF v.7.5 starts on 10Jan2026 at 19:25:27 

     This program is part of the open-source Quantum ESPRESSO suite
     for quantum simulation of materials; please cite
         "P. Giannozzi et al., J. Phys.:Condens. Matter 21 395502 (2009);
         "P. Giannozzi et al., J. Phys.:Condens. Matter 29 465901 (2017);
         "P. Giannozzi et al., J. Chem. Phys. 152 154105 (2020);
          URL http://www.quantum-espresso.org", 
     in publications or presentations arising from this work. More details at
     http://www.quantum-espresso.org/quote

     Serial version
     1400 MiB available memory on the printing compute node when the environment starts

     Waiting for input...
     Reading input from standard input

     Current dimensions of program PWSCF are:
     Max number of different atomic species (ntypx) = 10
     Max number of k-points (npk) =  40000
     Max angular momentum in pseudopotentials (lmaxx) =  4


     G-vector sticks info
     --------------------
     sticks:   dense  smooth     PW     G-vecs:    dense   smooth      PW
     Sum         847     847    253                22607    22607    3657

     Using Slab Decomposition



     bravais-lattice index     =            4
     lattice parameter (alat)  =       5.8260  a.u.
     unit-cell volume          =     195.5883 (a.u.)^3
     number of atoms/cell      =            3
     number of atomic types    =            2
     number of electrons       =        16.00
     number of Kohn-Sham states=           12
     kinetic-energy cutoff     =      90.0000  Ry
     charge density cutoff     =     360.0000  Ry
     scf convergence threshold =      1.0E-06
     mixing beta               =       0.7000
     number of iterations used =            8  plain     mixing
     Exchange-correlation= PBE
                           (   1   4   3   4   0   0   0)

     celldm(1)=   5.826038  celldm(2)=   0.000000  celldm(3)=   1.142069
     celldm(4)=   0.000000  celldm(5)=   0.000000  celldm(6)=   0.000000

     crystal axes: (cart. coord. in units of alat)
               a(1) = (   1.000000   0.000000   0.000000 )  
               a(2) = (  -0.500000   0.866025   0.000000 )  
               a(3) = (   0.000000   0.000000   1.142069 )  

     reciprocal axes: (cart. coord. in units 2 pi/alat)
               b(1) = (  1.000000  0.577350 -0.000000 )  
               b(2) = (  0.000000  1.154701  0.000000 )  
               b(3) = (  0.000000 -0.000000  0.875604 )  


     PseudoPot. # 1 for Mg read from file:
     ./PSEUDO/Mg_ONCV_PBE_sr.upf
     MD5 check sum: f927bdb32a17e5444945ae8f6d999e45
     Pseudo is Norm-conserving, Zval = 10.0
     Generated using ONCVPSP code by D. R. Hamann
     Using radial grid of 1510 points,  4 beta functions with: 
                l(1) =   0
                l(2) =   0
                l(3) =   1
                l(4) =   1

     PseudoPot. # 2 for B  read from file:
     ./PSEUDO/B_ONCV_PBE_sr.upf
     MD5 check sum: 12e13f68e8dc593c0a1d43390bab284b
     Pseudo is Norm-conserving + core correction, Zval =  3.0
     Generated using ONCVPSP code by D. R. Hamann
     Using radial grid of 1534 points,  4 beta functions with: 
                l(1) =   0
                l(2) =   0
                l(3) =   1
                l(4) =   1

     atomic species   valence    mass     pseudopotential
     Mg               10.00    24.30500     Mg( 1.00)
     B                 3.00    10.81100     B ( 1.00)

     24 Sym. Ops., with inversion, found



   Cartesian axes

     site n.     atom                  positions (alat units)
         1        Mg     tau(   1) = (   0.0000000   0.0000000   0.0000000  )
         2        B      tau(   2) = (   0.0000000   0.5773503   0.5710347  )
         3        B      tau(   3) = (   0.5000000   0.2886751   0.5710347  )

     number of k points=    28  Gaussian smearing, width (Ry)=  0.0400
                       cart. coord. in units 2pi/alat
        k(    1) = (   0.0000000   0.0000000   0.0000000), wk =   0.0092593
        k(    2) = (   0.0000000   0.0000000   0.1459339), wk =   0.0185185
        k(    3) = (   0.0000000   0.0000000   0.2918678), wk =   0.0185185
        k(    4) = (   0.0000000   0.0000000  -0.4378018), wk =   0.0092593
        k(    5) = (   0.0000000   0.1924501   0.0000000), wk =   0.0555556
        k(    6) = (   0.0000000   0.1924501   0.1459339), wk =   0.1111111
        k(    7) = (   0.0000000   0.1924501   0.2918678), wk =   0.1111111
        k(    8) = (   0.0000000   0.1924501  -0.4378018), wk =   0.0555556
        k(    9) = (   0.0000000   0.3849002   0.0000000), wk =   0.0555556
        k(   10) = (   0.0000000   0.3849002   0.1459339), wk =   0.1111111
        k(   11) = (   0.0000000   0.3849002   0.2918678), wk =   0.1111111
        k(   12) = (   0.0000000   0.3849002  -0.4378018), wk =   0.0555556
        k(   13) = (   0.0000000  -0.5773503   0.0000000), wk =   0.0277778
        k(   14) = (   0.0000000  -0.5773503   0.1459339), wk =   0.0555556
        k(   15) = (   0.0000000  -0.5773503   0.2918678), wk =   0.0555556
        k(   16) = (   0.0000000  -0.5773503  -0.4378018), wk =   0.0277778
        k(   17) = (   0.1666667   0.2886751   0.0000000), wk =   0.0555556
        k(   18) = (   0.1666667   0.2886751   0.1459339), wk =   0.1111111
        k(   19) = (   0.1666667   0.2886751   0.2918678), wk =   0.1111111
        k(   20) = (   0.1666667   0.2886751  -0.4378018), wk =   0.0555556
        k(   21) = (   0.1666667   0.4811252   0.0000000), wk =   0.1111111
        k(   22) = (   0.1666667   0.4811252   0.1459339), wk =   0.2222222
        k(   23) = (   0.1666667   0.4811252   0.2918678), wk =   0.2222222
        k(   24) = (   0.1666667   0.4811252  -0.4378018), wk =   0.1111111
        k(   25) = (   0.3333333   0.5773503   0.0000000), wk =   0.0185185
        k(   26) = (   0.3333333   0.5773503   0.1459339), wk =   0.0370370
        k(   27) = (   0.3333333   0.5773503   0.2918678), wk =   0.0370370
        k(   28) = (   0.3333333   0.5773503  -0.4378018), wk =   0.0185185

     Dense  grid:    22607 G-vectors     FFT dimensions: (  36,  36,  45)

     Estimated max dynamical RAM per process >      33.07 MB

     Initial potential from superposition of free atoms

     starting charge      15.9987, renormalised to      16.0000
     Starting wfcs are   13 randomized atomic wfcs

     total cpu time spent up to now is        0.5 secs

     Self-consistent Calculation

     iteration #  1     ecut=    90.00 Ry     beta= 0.70
     Davidson diagonalization with overlap
     ethr =  1.00E-02,  avg # of iterations =  3.8

     total cpu time spent up to now is        1.6 secs

     total energy              =    -130.49301906 Ry
     estimated scf accuracy    <       0.31131028 Ry

     iteration #  2     ecut=    90.00 Ry     beta= 0.70
     Davidson diagonalization with overlap
     ethr =  1.95E-03,  avg # of iterations =  2.7

     total cpu time spent up to now is        2.6 secs

     total energy              =    -130.57740737 Ry
     estimated scf accuracy    <       0.05224373 Ry

     iteration #  3     ecut=    90.00 Ry     beta= 0.70
     Davidson diagonalization with overlap
     ethr =  3.27E-04,  avg # of iterations =  2.5

     total cpu time spent up to now is        3.4 secs

     total energy              =    -130.58751496 Ry
     estimated scf accuracy    <       0.00038357 Ry

     iteration #  4     ecut=    90.00 Ry     beta= 0.70
     Davidson diagonalization with overlap
     ethr =  2.40E-06,  avg # of iterations =  5.6

     total cpu time spent up to now is        4.6 secs

     total energy              =    -130.58760161 Ry
     estimated scf accuracy    <       0.00001118 Ry

     iteration #  5     ecut=    90.00 Ry     beta= 0.70
     Davidson diagonalization with overlap
     ethr =  6.99E-08,  avg # of iterations =  2.1

     total cpu time spent up to now is        5.5 secs

     End of self-consistent calculation

          k = 0.0000 0.0000 0.0000 (  2835 PWs)   bands (ev):

   -66.0373 -32.8177 -32.8177 -32.8003  -3.2315   6.2587   9.5482   9.5482
    10.8754  15.5095  15.5095  17.2886

          k = 0.0000 0.0000 0.1459 (  2852 PWs)   bands (ev):

   -66.0372 -32.8175 -32.8175 -32.8021  -2.9951   4.7590   9.6351   9.6351
    12.9374  15.5909  15.5909  17.2506

          k = 0.0000 0.0000 0.2919 (  2822 PWs)   bands (ev):

   -66.0371 -32.8173 -32.8173 -32.8058  -2.3862   2.7243   9.8195   9.8195
    15.7673  15.7673  16.6037  17.1744

          k = 0.0000 0.0000-0.4378 (  2804 PWs)   bands (ev):

   -66.0370 -32.8171 -32.8171 -32.8076  -1.9449   1.7696   9.9178   9.9178
    15.8637  15.8637  17.1363  19.0533

          k = 0.0000 0.1925 0.0000 (  2811 PWs)   bands (ev):

   -66.0364 -32.8275 -32.8201 -32.7988  -2.7484   6.7278   7.5085   8.6369
    11.3147  15.0357  17.3856  17.5609

          k = 0.0000 0.1925 0.1459 (  2812 PWs)   bands (ev):

   -66.0364 -32.8273 -32.8199 -32.8006  -2.5182   5.2495   7.6325   8.7166
    13.2888  15.2081  16.3594  17.4758

          k = 0.0000 0.1925 0.2919 (  2824 PWs)   bands (ev):

   -66.0363 -32.8270 -32.8196 -32.8042  -1.9292   3.2492   7.8980   8.8855
    14.8439  15.5238  17.1505  17.6740

          k = 0.0000 0.1925-0.4378 (  2798 PWs)   bands (ev):

   -66.0362 -32.8269 -32.8195 -32.8060  -1.5091   2.3202   8.0481   8.9753
    14.4073  15.7163  17.7850  19.4994

          k = 0.0000 0.3849 0.0000 (  2817 PWs)   bands (ev):

   -66.0348 -32.8470 -32.8248 -32.7960  -1.3258   4.0975   7.4548   8.0697
    12.4855  14.2130  14.3964  17.8655

          k = 0.0000 0.3849 0.1459 (  2815 PWs)   bands (ev):

   -66.0347 -32.8468 -32.8247 -32.7977  -1.1129   4.2527   6.6728   7.5270
    12.7381  14.0617  15.1592  19.2867

          k = 0.0000 0.3849 0.2919 (  2823 PWs)   bands (ev):

   -66.0346 -32.8464 -32.8243 -32.8011  -0.5785   4.5837   4.8060   7.6796
    11.1751  14.7810  18.2133  19.1953

          k = 0.0000 0.3849-0.4378 (  2826 PWs)   bands (ev):

   -66.0345 -32.8462 -32.8242 -32.8028  -0.2122   3.9007   4.8470   7.7605
    10.4941  15.1604  18.5787  18.5875

          k = 0.0000-0.5774 0.0000 (  2820 PWs)   bands (ev):

   -66.0339 -32.8567 -32.8272 -32.7945   0.6634   1.3603   7.0085   9.4190
    12.2752  13.1081  14.5312  16.3098

          k = 0.0000-0.5774 0.1459 (  2818 PWs)   bands (ev):

   -66.0339 -32.8565 -32.8270 -32.7962   0.8501   1.5493   7.0781   8.1793
    10.5629  13.7925  16.3263  17.8661

          k = 0.0000-0.5774 0.2919 (  2824 PWs)   bands (ev):

   -66.0337 -32.8561 -32.8267 -32.7995   1.3161   1.9967   6.4314   7.2250
     8.6930  14.4762  18.6042  18.7438

          k = 0.0000-0.5774-0.4378 (  2836 PWs)   bands (ev):

   -66.0337 -32.8559 -32.8265 -32.8012   1.6311   2.2735   5.6429   7.3027
     7.9134  14.9141  17.9820  18.1242

          k = 0.1667 0.2887 0.0000 (  2803 PWs)   bands (ev):

   -66.0352 -32.8403 -32.8255 -32.7967  -1.7955   5.6152   6.6558   7.6438
    12.2866  15.4029  16.2551  16.6906

          k = 0.1667 0.2887 0.1459 (  2818 PWs)   bands (ev):

   -66.0351 -32.8401 -32.8253 -32.7984  -1.5770   5.7563   6.1828   6.8014
    13.9939  14.2057  16.4032  17.5413

          k = 0.1667 0.2887 0.2919 (  2822 PWs)   bands (ev):

   -66.0350 -32.8397 -32.8250 -32.8019  -1.0252   4.2716   6.0833   7.0022
    12.4284  16.4542  17.0458  18.1403

          k = 0.1667 0.2887-0.4378 (  2834 PWs)   bands (ev):

   -66.0349 -32.8395 -32.8248 -32.8036  -0.6425   3.3903   6.2786   7.1210
    11.7898  16.4119  16.9491  18.3628

          k = 0.1667 0.4811 0.0000 (  2823 PWs)   bands (ev):

   -66.0339 -32.8517 -32.8322 -32.7945   0.0423   2.7797   5.4240   9.2817
    12.7474  13.9387  15.4251  17.1579

          k = 0.1667 0.4811 0.1459 (  2820 PWs)   bands (ev):

   -66.0339 -32.8515 -32.8320 -32.7962   0.2392   2.9489   5.5411   7.9606
    11.2940  15.5963  16.1297  17.3415

          k = 0.1667 0.4811 0.2919 (  2821 PWs)   bands (ev):

   -66.0337 -32.8511 -32.8317 -32.7995   0.7262   3.3512   5.7919   6.1586
     9.5371  15.1400  16.8459  19.4646

          k = 0.1667 0.4811-0.4378 (  2834 PWs)   bands (ev):

   -66.0337 -32.8509 -32.8315 -32.8012   1.0507   3.6028   5.3267   5.9611
     8.7981  14.5537  17.0425  21.3627

          k = 0.3333 0.5774 0.0000 (  2805 PWs)   bands (ev):

   -66.0335 -32.8450 -32.8450 -32.7938   1.9302   1.9302   3.3370  11.0033
    11.0033  15.3860  15.3860  18.2375

          k = 0.3333 0.5774 0.1459 (  2820 PWs)   bands (ev):

   -66.0334 -32.8448 -32.8448 -32.7955   2.1067   2.1067   3.4885   9.7006
     9.7006  15.5138  17.1447  17.1447

          k = 0.3333 0.5774 0.2919 (  2826 PWs)   bands (ev):

   -66.0333 -32.8444 -32.8444 -32.7988   2.5394   2.5394   3.8247   7.9583
     7.9583  13.5308  19.9419  19.9420

          k = 0.3333 0.5774-0.4378 (  2850 PWs)   bands (ev):

   -66.0333 -32.8442 -32.8442 -32.8004   2.8222   2.8222   4.0139   7.1982
     7.1982  12.7771  21.0884  21.0884

     the Fermi energy is     9.2262 ev

!    total energy              =    -130.58760415 Ry
     estimated scf accuracy    <       0.00000026 Ry
     smearing contrib. (-TS)   =      -0.00730916 Ry
     internal energy E=F+TS    =    -130.58029499 Ry

     The total energy is F=E-TS. E is the sum of the following terms:
     one-electron contribution =     -76.51172307 Ry
     hartree contribution      =      40.67464058 Ry
     xc contribution           =     -20.84154762 Ry
     ewald contribution        =     -73.90166488 Ry

     convergence has been achieved in   5 iterations

     Forces acting on atoms (cartesian axes, Ry/au):

     atom    1 type  1   force =    -0.00000000   -0.00000000    0.00000000
     atom    2 type  2   force =     0.00000000    0.00000000   -0.00000000
     atom    3 type  2   force =     0.00000000    0.00000000    0.00000000

     Total force =     0.000000     Total SCF correction =     0.000000


     Computing stress (Cartesian axis) and pressure

          total   stress  (Ry/bohr**3)                   (kbar)     P=       -6.57
  -0.00005598  -0.00000000   0.00000000           -8.24       -0.00        0.00
  -0.00000000  -0.00005598   0.00000000           -0.00       -8.24        0.00
   0.00000000   0.00000000  -0.00002195            0.00        0.00       -3.23


     Writing all to output data dir ./tmp/MgB2.save/ :
     XML data file, charge density, pseudopotentials, collected wavefunctions

     init_run     :      0.47s CPU      0.50s WALL (       1 calls)
     electrons    :      4.67s CPU      4.96s WALL (       1 calls)
     forces       :      0.11s CPU      0.12s WALL (       1 calls)
     stress       :      0.38s CPU      0.40s WALL (       1 calls)

     Called by init_run:
     wfcinit      :      0.32s CPU      0.34s WALL (       1 calls)
     potinit      :      0.05s CPU      0.06s WALL (       1 calls)
     hinit0       :      0.08s CPU      0.09s WALL (       1 calls)

     Called by electrons:
     c_bands      :      4.05s CPU      4.31s WALL (       5 calls)
     sum_band     :      0.55s CPU      0.57s WALL (       5 calls)
     v_of_rho     :      0.08s CPU      0.09s WALL (       6 calls)
     mix_rho      :      0.01s CPU      0.01s WALL (       5 calls)

     Called by c_bands:
     init_us_2    :      0.11s CPU      0.12s WALL (     364 calls)
     cegterg      :      3.94s CPU      4.18s WALL (     140 calls)

     Called by *egterg:
     cdiaghg      :      0.05s CPU      0.06s WALL (     606 calls)
     h_psi        :      3.26s CPU      3.49s WALL (     634 calls)
     g_psi        :      0.02s CPU      0.02s WALL (     466 calls)

     Called by h_psi:
     h_psi:calbec :      0.27s CPU      0.28s WALL (     634 calls)
     vloc_psi     :      2.72s CPU      2.92s WALL (     634 calls)
                                        0.00s GPU  (     634 calls)
     add_vuspsi   :      0.25s CPU      0.26s WALL (     634 calls)

     General routines
     calbec       :      0.56s CPU      0.59s WALL (    1110 calls)
     fft          :      0.04s CPU      0.04s WALL (      84 calls)
     ffts         :      0.00s CPU      0.00s WALL (       5 calls)
     fftw         :      2.81s CPU      3.02s WALL (   11334 calls)


     PWSCF        :      5.65s CPU      6.02s WALL


   This run was terminated on:  19:25:33  10Jan2026            

=------------------------------------------------------------------------------=
   JOB DONE.
=------------------------------------------------------------------------------=
