
     Program PWSCF v.7.5 starts on 10Jan2026 at 19:19:30 

     This program is part of the open-source Quantum ESPRESSO suite
     for quantum simulation of materials; please cite
         "P. Giannozzi et al., J. Phys.:Condens. Matter 21 395502 (2009);
         "P. Giannozzi et al., J. Phys.:Condens. Matter 29 465901 (2017);
         "P. Giannozzi et al., J. Chem. Phys. 152 154105 (2020);
          URL http://www.quantum-espresso.org", 
     in publications or presentations arising from this work. More details at
     http://www.quantum-espresso.org/quote

     Serial version
     1146 MiB available memory on the printing compute node when the environment starts

     Waiting for input...
     Reading input from standard input

     Current dimensions of program PWSCF are:
     Max number of different atomic species (ntypx) = 10
     Max number of k-points (npk) =  40000
     Max angular momentum in pseudopotentials (lmaxx) =  4


     G-vector sticks info
     --------------------
     sticks:   dense  smooth     PW     G-vecs:    dense   smooth      PW
     Sum        1135    1135    313                34697    34697    5401

     Using Slab Decomposition



     bravais-lattice index     =            4
     lattice parameter (alat)  =       5.8260  a.u.
     unit-cell volume          =     195.5883 (a.u.)^3
     number of atoms/cell      =            3
     number of atomic types    =            2
     number of electrons       =        16.00
     number of Kohn-Sham states=           12
     kinetic-energy cutoff     =     120.0000  Ry
     charge density cutoff     =     480.0000  Ry
     scf convergence threshold =      1.0E-06
     mixing beta               =       0.7000
     number of iterations used =            8  plain     mixing
     Exchange-correlation= PBE
                           (   1   4   3   4   0   0   0)

     celldm(1)=   5.826038  celldm(2)=   0.000000  celldm(3)=   1.142069
     celldm(4)=   0.000000  celldm(5)=   0.000000  celldm(6)=   0.000000

     crystal axes: (cart. coord. in units of alat)
               a(1) = (   1.000000   0.000000   0.000000 )  
               a(2) = (  -0.500000   0.866025   0.000000 )  
               a(3) = (   0.000000   0.000000   1.142069 )  

     reciprocal axes: (cart. coord. in units 2 pi/alat)
               b(1) = (  1.000000  0.577350 -0.000000 )  
               b(2) = (  0.000000  1.154701  0.000000 )  
               b(3) = (  0.000000 -0.000000  0.875604 )  


     PseudoPot. # 1 for Mg read from file:
     ./PSEUDO/Mg_ONCV_PBE_sr.upf
     MD5 check sum: f927bdb32a17e5444945ae8f6d999e45
     Pseudo is Norm-conserving, Zval = 10.0
     Generated using ONCVPSP code by D. R. Hamann
     Using radial grid of 1510 points,  4 beta functions with: 
                l(1) =   0
                l(2) =   0
                l(3) =   1
                l(4) =   1

     PseudoPot. # 2 for B  read from file:
     ./PSEUDO/B_ONCV_PBE_sr.upf
     MD5 check sum: 12e13f68e8dc593c0a1d43390bab284b
     Pseudo is Norm-conserving + core correction, Zval =  3.0
     Generated using ONCVPSP code by D. R. Hamann
     Using radial grid of 1534 points,  4 beta functions with: 
                l(1) =   0
                l(2) =   0
                l(3) =   1
                l(4) =   1

     atomic species   valence    mass     pseudopotential
     Mg               10.00    24.30500     Mg( 1.00)
     B                 3.00    10.81100     B ( 1.00)

     24 Sym. Ops., with inversion, found



   Cartesian axes

     site n.     atom                  positions (alat units)
         1        Mg     tau(   1) = (   0.0000000   0.0000000   0.0000000  )
         2        B      tau(   2) = (   0.0000000   0.5773503   0.5710347  )
         3        B      tau(   3) = (   0.5000000   0.2886751   0.5710347  )

     number of k points=    50  Gaussian smearing, width (Ry)=  0.0400
                       cart. coord. in units 2pi/alat
        k(    1) = (   0.0000000   0.0000000   0.0000000), wk =   0.0039062
        k(    2) = (   0.0000000   0.0000000   0.1094504), wk =   0.0078125
        k(    3) = (   0.0000000   0.0000000   0.2189009), wk =   0.0078125
        k(    4) = (   0.0000000   0.0000000   0.3283513), wk =   0.0078125
        k(    5) = (   0.0000000   0.0000000  -0.4378018), wk =   0.0039062
        k(    6) = (   0.0000000   0.1443376   0.0000000), wk =   0.0234375
        k(    7) = (   0.0000000   0.1443376   0.1094504), wk =   0.0468750
        k(    8) = (   0.0000000   0.1443376   0.2189009), wk =   0.0468750
        k(    9) = (   0.0000000   0.1443376   0.3283513), wk =   0.0468750
        k(   10) = (   0.0000000   0.1443376  -0.4378018), wk =   0.0234375
        k(   11) = (   0.0000000   0.2886751   0.0000000), wk =   0.0234375
        k(   12) = (   0.0000000   0.2886751   0.1094504), wk =   0.0468750
        k(   13) = (   0.0000000   0.2886751   0.2189009), wk =   0.0468750
        k(   14) = (   0.0000000   0.2886751   0.3283513), wk =   0.0468750
        k(   15) = (   0.0000000   0.2886751  -0.4378018), wk =   0.0234375
        k(   16) = (   0.0000000   0.4330127   0.0000000), wk =   0.0234375
        k(   17) = (   0.0000000   0.4330127   0.1094504), wk =   0.0468750
        k(   18) = (   0.0000000   0.4330127   0.2189009), wk =   0.0468750
        k(   19) = (   0.0000000   0.4330127   0.3283513), wk =   0.0468750
        k(   20) = (   0.0000000   0.4330127  -0.4378018), wk =   0.0234375
        k(   21) = (   0.0000000  -0.5773503   0.0000000), wk =   0.0117188
        k(   22) = (   0.0000000  -0.5773503   0.1094504), wk =   0.0234375
        k(   23) = (   0.0000000  -0.5773503   0.2189009), wk =   0.0234375
        k(   24) = (   0.0000000  -0.5773503   0.3283513), wk =   0.0234375
        k(   25) = (   0.0000000  -0.5773503  -0.4378018), wk =   0.0117188
        k(   26) = (   0.1250000   0.2165064   0.0000000), wk =   0.0234375
        k(   27) = (   0.1250000   0.2165064   0.1094504), wk =   0.0468750
        k(   28) = (   0.1250000   0.2165064   0.2189009), wk =   0.0468750
        k(   29) = (   0.1250000   0.2165064   0.3283513), wk =   0.0468750
        k(   30) = (   0.1250000   0.2165064  -0.4378018), wk =   0.0234375
        k(   31) = (   0.1250000   0.3608439   0.0000000), wk =   0.0468750
        k(   32) = (   0.1250000   0.3608439   0.1094504), wk =   0.0937500
        k(   33) = (   0.1250000   0.3608439   0.2189009), wk =   0.0937500
        k(   34) = (   0.1250000   0.3608439   0.3283513), wk =   0.0937500
        k(   35) = (   0.1250000   0.3608439  -0.4378018), wk =   0.0468750
        k(   36) = (   0.1250000   0.5051815   0.0000000), wk =   0.0468750
        k(   37) = (   0.1250000   0.5051815   0.1094504), wk =   0.0937500
        k(   38) = (   0.1250000   0.5051815   0.2189009), wk =   0.0937500
        k(   39) = (   0.1250000   0.5051815   0.3283513), wk =   0.0937500
        k(   40) = (   0.1250000   0.5051815  -0.4378018), wk =   0.0468750
        k(   41) = (   0.2500000   0.4330127   0.0000000), wk =   0.0234375
        k(   42) = (   0.2500000   0.4330127   0.1094504), wk =   0.0468750
        k(   43) = (   0.2500000   0.4330127   0.2189009), wk =   0.0468750
        k(   44) = (   0.2500000   0.4330127   0.3283513), wk =   0.0468750
        k(   45) = (   0.2500000   0.4330127  -0.4378018), wk =   0.0234375
        k(   46) = (   0.2500000   0.5773503   0.0000000), wk =   0.0234375
        k(   47) = (   0.2500000   0.5773503   0.1094504), wk =   0.0468750
        k(   48) = (   0.2500000   0.5773503   0.2189009), wk =   0.0468750
        k(   49) = (   0.2500000   0.5773503   0.3283513), wk =   0.0468750
        k(   50) = (   0.2500000   0.5773503  -0.4378018), wk =   0.0234375

     Dense  grid:    34697 G-vectors     FFT dimensions: (  45,  45,  48)

     Estimated max dynamical RAM per process >      68.51 MB

     Initial potential from superposition of free atoms

     starting charge      15.9987, renormalised to      16.0000
     Starting wfcs are   13 randomized atomic wfcs

     total cpu time spent up to now is        1.4 secs

     Self-consistent Calculation

     iteration #  1     ecut=   120.00 Ry     beta= 0.70
     Davidson diagonalization with overlap
     ethr =  1.00E-02,  avg # of iterations =  4.2

     total cpu time spent up to now is        4.9 secs

     total energy              =    -130.49353022 Ry
     estimated scf accuracy    <       0.31089115 Ry

     iteration #  2     ecut=   120.00 Ry     beta= 0.70
     Davidson diagonalization with overlap
     ethr =  1.94E-03,  avg # of iterations =  2.6

     total cpu time spent up to now is        8.0 secs

     total energy              =    -130.57776116 Ry
     estimated scf accuracy    <       0.05092944 Ry

     iteration #  3     ecut=   120.00 Ry     beta= 0.70
     Davidson diagonalization with overlap
     ethr =  3.18E-04,  avg # of iterations =  2.4

     total cpu time spent up to now is       10.7 secs

     total energy              =    -130.58740152 Ry
     estimated scf accuracy    <       0.00034828 Ry

     iteration #  4     ecut=   120.00 Ry     beta= 0.70
     Davidson diagonalization with overlap
     ethr =  2.18E-06,  avg # of iterations =  6.7

     total cpu time spent up to now is       14.5 secs

     total energy              =    -130.58748277 Ry
     estimated scf accuracy    <       0.00001073 Ry

     iteration #  5     ecut=   120.00 Ry     beta= 0.70
     Davidson diagonalization with overlap
     ethr =  6.71E-08,  avg # of iterations =  2.0

     total cpu time spent up to now is       17.3 secs

     End of self-consistent calculation

          k = 0.0000 0.0000 0.0000 (  4373 PWs)   bands (ev):

   -66.0389 -32.8189 -32.8189 -32.8011  -3.2316   6.2588   9.5477   9.5477
    10.8757  15.5092  15.5092  17.2889

          k = 0.0000 0.0000 0.1095 (  4355 PWs)   bands (ev):

   -66.0389 -32.8188 -32.8188 -32.8022  -3.0971   5.2940   9.5982   9.5982
    12.1574  15.5563  15.5563  17.2666

          k = 0.0000 0.0000 0.2189 (  4343 PWs)   bands (ev):

   -66.0388 -32.8186 -32.8186 -32.8048  -2.7204   3.6786   9.7249   9.7249
    14.7121  15.6763  15.6763  17.2127

          k = 0.0000 0.0000 0.3284 (  4325 PWs)   bands (ev):

   -66.0387 -32.8184 -32.8184 -32.8073  -2.2215   2.3366   9.8591   9.8591
    15.8062  15.8062  17.1588  17.5212

          k = 0.0000 0.0000-0.4378 (  4344 PWs)   bands (ev):

   -66.0387 -32.8184 -32.8184 -32.8084  -1.9452   1.7699   9.9172   9.9172
    15.8634  15.8634  17.1365  19.0534

          k = 0.0000 0.1443 0.0000 (  4347 PWs)   bands (ev):

   -66.0384 -32.8246 -32.8203 -32.8002  -2.9594   6.5235   8.2835   8.9692
    11.1220  15.2614  16.6341  18.2008

          k = 0.0000 0.1443 0.1095 (  4338 PWs)   bands (ev):

   -66.0384 -32.8245 -32.8202 -32.8013  -2.8268   5.5666   8.3486   9.0169
    12.3785  15.3449  16.6846  17.1892

          k = 0.0000 0.1443 0.2189 (  4337 PWs)   bands (ev):

   -66.0383 -32.8243 -32.8200 -32.8039  -2.4563   3.9649   8.5102   9.1366
    14.7595  15.6708  16.3581  16.8135

          k = 0.0000 0.1443 0.3284 (  4318 PWs)   bands (ev):

   -66.0382 -32.8241 -32.8198 -32.8064  -1.9681   2.6379   8.6866   9.2632
    15.5116  15.7960  16.9539  17.8120

          k = 0.0000 0.1443-0.4378 (  4330 PWs)   bands (ev):

   -66.0382 -32.8240 -32.8197 -32.8075  -1.7000   2.0808   8.7653   9.3180
    15.3676  15.8167  17.0161  19.6948

          k = 0.0000 0.2887 0.0000 (  4356 PWs)   bands (ev):

   -66.0372 -32.8385 -32.8236 -32.7982  -2.1508   5.8059   7.3021   7.9810
    11.8438  14.5512  16.0225  18.4765

          k = 0.0000 0.2887 0.1095 (  4342 PWs)   bands (ev):

   -66.0372 -32.8384 -32.8236 -32.7992  -2.0238   5.8748   6.3865   8.0249
    12.9851  14.6204  15.3288  19.2460

          k = 0.0000 0.2887 0.2189 (  4341 PWs)   bands (ev):

   -66.0371 -32.8381 -32.8234 -32.8017  -1.6709   4.8045   6.1072   8.1346
    13.6189  14.8102  15.9968  19.3738

          k = 0.0000 0.2887 0.3284 (  4331 PWs)   bands (ev):

   -66.0370 -32.8379 -32.8231 -32.8042  -1.2129   3.5244   6.3440   8.2506
    12.7617  15.2439  18.4383  19.4029

          k = 0.0000 0.2887-0.4378 (  4314 PWs)   bands (ev):

   -66.0370 -32.8377 -32.8231 -32.8052  -0.9668   2.9940   6.4549   8.3007
    12.4135  15.4321  19.2383  19.6440

          k = 0.0000 0.4330 0.0000 (  4340 PWs)   bands (ev):

   -66.0361 -32.8522 -32.8270 -32.7962  -0.8336   3.2813   7.2615   8.5005
    12.7788  13.6363  14.1705  17.3794

          k = 0.0000 0.4330 0.1095 (  4340 PWs)   bands (ev):

   -66.0360 -32.8521 -32.8269 -32.7972  -0.7153   3.3759   7.3028   7.6264
    12.4519  13.7405  14.8684  18.3563

          k = 0.0000 0.4330 0.2189 (  4344 PWs)   bands (ev):

   -66.0359 -32.8518 -32.8267 -32.7995  -0.3896   3.6284   6.1394   7.4061
    11.0980  14.3152  16.9850  19.5250

          k = 0.0000 0.4330 0.3284 (  4330 PWs)   bands (ev):

   -66.0359 -32.8515 -32.8265 -32.8019   0.0244   3.9287   4.9218   7.5151
    10.0227  14.8050  18.6014  18.7317

          k = 0.0000 0.4330-0.4378 (  4336 PWs)   bands (ev):

   -66.0358 -32.8514 -32.8264 -32.8029   0.2406   4.0785   4.4212   7.5621
     9.6102  15.0547  18.3276  18.3804

          k = 0.0000-0.5774 0.0000 (  4336 PWs)   bands (ev):

   -66.0356 -32.8579 -32.8284 -32.7953   0.6633   1.3600   7.0081   9.4191
    12.2752  13.1080  14.5315  16.3098

          k = 0.0000-0.5774 0.1095 (  4346 PWs)   bands (ev):

   -66.0355 -32.8578 -32.8283 -32.7963   0.7698   1.4684   7.0485   8.6336
    11.0990  13.6221  15.6303  17.2930

          k = 0.0000-0.5774 0.2189 (  4352 PWs)   bands (ev):

   -66.0355 -32.8575 -32.8281 -32.7987   1.0635   1.7588   7.1497   7.2488
     9.5422  14.1277  17.9411  18.7333

          k = 0.0000-0.5774 0.3284 (  4350 PWs)   bands (ev):

   -66.0354 -32.8572 -32.8278 -32.8010   1.4366   2.1053   6.1058   7.2563
     8.3656  14.6407  18.3816  18.4756

          k = 0.0000-0.5774-0.4378 (  4324 PWs)   bands (ev):

   -66.0353 -32.8571 -32.8277 -32.8020   1.6309   2.2730   5.6433   7.3023
     7.9137  14.9136  17.9820  18.1244

          k = 0.1250 0.2165 0.0000 (  4346 PWs)   bands (ev):

   -66.0376 -32.8338 -32.8233 -32.7988  -2.4190   6.8265   7.0465   7.7168
    11.6667  15.8026  16.6294  16.7234

          k = 0.1250 0.2165 0.1095 (  4344 PWs)   bands (ev):

   -66.0376 -32.8337 -32.8232 -32.7998  -2.2902   6.1027   6.8999   7.7835
    12.8892  15.6778  15.9050  17.1775

          k = 0.1250 0.2165 0.2189 (  4331 PWs)   bands (ev):

   -66.0375 -32.8334 -32.8230 -32.8023  -1.9315   4.5297   7.0916   7.9209
    14.5384  15.1907  16.3068  17.4479

          k = 0.1250 0.2165 0.3284 (  4325 PWs)   bands (ev):

   -66.0374 -32.8332 -32.8228 -32.8048  -1.4638   3.2325   7.3096   8.0642
    13.6704  16.2035  17.6626  17.9592

          k = 0.1250 0.2165-0.4378 (  4320 PWs)   bands (ev):

   -66.0374 -32.8331 -32.8227 -32.8059  -1.2107   2.6933   7.4098   8.1264
    13.3429  16.3929  17.7550  17.8922

          k = 0.1250 0.3608 0.0000 (  4342 PWs)   bands (ev):

   -66.0364 -32.8462 -32.8281 -32.7968  -1.3555   4.6055   6.5374   8.0554
    12.6739  14.5795  15.3849  17.5426

          k = 0.1250 0.3608 0.1095 (  4339 PWs)   bands (ev):

   -66.0364 -32.8461 -32.8280 -32.7978  -1.2338   4.6914   6.5828   7.1741
    13.5029  13.9505  15.6873  18.1557

          k = 0.1250 0.3608 0.2189 (  4334 PWs)   bands (ev):

   -66.0363 -32.8458 -32.8277 -32.8002  -0.8975   4.9151   5.6301   6.7652
    12.2319  15.6162  16.4957  17.9733

          k = 0.1250 0.3608 0.3284 (  4338 PWs)   bands (ev):

   -66.0362 -32.8455 -32.8275 -32.8026  -0.4668   4.3778   5.1985   6.9219
    11.2077  16.0311  16.6798  19.2555

          k = 0.1250 0.3608-0.4378 (  4342 PWs)   bands (ev):

   -66.0362 -32.8454 -32.8274 -32.8036  -0.2397   3.8738   5.3224   6.9934
    10.8182  16.0947  16.4326  19.7278

          k = 0.1250 0.5052 0.0000 (  4349 PWs)   bands (ev):

   -66.0356 -32.8549 -32.8315 -32.7953   0.1757   2.3077   5.9889   9.3248
    12.5844  13.8914  14.8392  16.8587

          k = 0.1250 0.5052 0.1095 (  4346 PWs)   bands (ev):

   -66.0355 -32.8547 -32.8314 -32.7963   0.2872   2.4080   6.0489   8.4969
    11.5568  14.7534  15.5686  17.4726

          k = 0.1250 0.5052 0.2189 (  4346 PWs)   bands (ev):

   -66.0355 -32.8544 -32.8312 -32.7987   0.5929   2.6774   6.2008   7.0690
    10.0685  15.3212  16.8266  17.8978

          k = 0.1250 0.5052 0.3284 (  4347 PWs)   bands (ev):

   -66.0354 -32.8541 -32.8309 -32.8010   0.9772   3.0013   5.8876   6.3826
     8.9322  15.3923  16.2528  20.3603

          k = 0.1250 0.5052-0.4378 (  4352 PWs)   bands (ev):

   -66.0353 -32.8540 -32.8308 -32.8020   1.1748   3.1599   5.4183   6.4571
     8.4934  15.2357  16.2031  21.3004

          k = 0.2500 0.4330 0.0000 (  4338 PWs)   bands (ev):

   -66.0356 -32.8506 -32.8358 -32.7953  -0.0673   3.4947   4.6138   9.2411
    12.9188  13.9126  16.2293  17.5291

          k = 0.2500 0.4330 0.1095 (  4347 PWs)   bands (ev):

   -66.0355 -32.8505 -32.8357 -32.7963   0.0460   3.5878   4.6891   8.3840
    12.0282  15.0467  16.8266  17.1969

          k = 0.2500 0.4330 0.2189 (  4346 PWs)   bands (ev):

   -66.0355 -32.8502 -32.8354 -32.7987   0.3566   3.8389   4.8826   6.9250
    10.6290  15.3863  17.2593  18.5918

          k = 0.2500 0.4330 0.3284 (  4351 PWs)   bands (ev):

   -66.0354 -32.8499 -32.8352 -32.8010   0.7473   4.1424   5.0965   5.7391
     9.5489  14.3184  18.4582  19.3691

          k = 0.2500 0.4330-0.4378 (  4360 PWs)   bands (ev):

   -66.0353 -32.8497 -32.8351 -32.8020   0.9485   4.2911   5.2094   5.2452
     9.1324  13.9250  18.6377  19.5986

          k = 0.2500 0.5774 0.0000 (  4334 PWs)   bands (ev):

   -66.0352 -32.8509 -32.8405 -32.7947   1.3770   1.9950   4.0254  10.3149
    11.6675  15.0250  15.4703  17.8372

          k = 0.2500 0.5774 0.1095 (  4346 PWs)   bands (ev):

   -66.0352 -32.8508 -32.8404 -32.7957   1.4804   2.0967   4.1074   9.5005
    10.7760  16.1301  16.3697  16.5113

          k = 0.2500 0.5774 0.2189 (  4350 PWs)   bands (ev):

   -66.0351 -32.8505 -32.8401 -32.7980   1.7640   2.3703   4.3207   8.1031
     9.3373  14.7352  18.0366  18.3643

          k = 0.2500 0.5774 0.3284 (  4362 PWs)   bands (ev):

   -66.0350 -32.8502 -32.8398 -32.8004   2.1199   2.7001   4.5632   6.9706
     8.2078  13.5895  18.7324  20.6983

          k = 0.2500 0.5774-0.4378 (  4364 PWs)   bands (ev):

   -66.0350 -32.8501 -32.8397 -32.8013   2.3021   2.8614   4.6761   6.5186
     7.7658  13.1742  18.9147  21.9414

     the Fermi energy is     9.1962 ev

!    total energy              =    -130.58748497 Ry
     estimated scf accuracy    <       0.00000025 Ry
     smearing contrib. (-TS)   =      -0.00711401 Ry
     internal energy E=F+TS    =    -130.58037097 Ry

     The total energy is F=E-TS. E is the sum of the following terms:
     one-electron contribution =     -76.51072884 Ry
     hartree contribution      =      40.67361938 Ry
     xc contribution           =     -20.84159662 Ry
     ewald contribution        =     -73.90166488 Ry

     convergence has been achieved in   5 iterations

     Forces acting on atoms (cartesian axes, Ry/au):

     atom    1 type  1   force =    -0.00000000   -0.00000000   -0.00000000
     atom    2 type  2   force =    -0.00000000   -0.00000000   -0.00000000
     atom    3 type  2   force =     0.00000000    0.00000000    0.00000000

     Total force =     0.000000     Total SCF correction =     0.000000


     Computing stress (Cartesian axis) and pressure

          total   stress  (Ry/bohr**3)                   (kbar)     P=       -6.43
  -0.00007123   0.00000000  -0.00000000          -10.48        0.00       -0.00
   0.00000000  -0.00007123  -0.00000000            0.00      -10.48       -0.00
   0.00000000   0.00000000   0.00001139            0.00        0.00        1.68


     Writing all to output data dir ./tmp/MgB2.save/ :
     XML data file, charge density, pseudopotentials, collected wavefunctions

     init_run     :      1.32s CPU      1.37s WALL (       1 calls)
     electrons    :     15.41s CPU     15.90s WALL (       1 calls)
     forces       :      0.29s CPU      0.30s WALL (       1 calls)
     stress       :      1.04s CPU      1.07s WALL (       1 calls)

     Called by init_run:
     wfcinit      :      1.12s CPU      1.16s WALL (       1 calls)
     potinit      :      0.07s CPU      0.08s WALL (       1 calls)
     hinit0       :      0.10s CPU      0.11s WALL (       1 calls)

     Called by electrons:
     c_bands      :     13.47s CPU     13.89s WALL (       5 calls)
     sum_band     :      1.81s CPU      1.86s WALL (       5 calls)
     v_of_rho     :      0.14s CPU      0.16s WALL (       6 calls)
     mix_rho      :      0.01s CPU      0.02s WALL (       5 calls)

     Called by c_bands:
     init_us_2    :      0.33s CPU      0.36s WALL (     650 calls)
     cegterg      :     13.14s CPU     13.52s WALL (     250 calls)

     Called by *egterg:
     cdiaghg      :      0.10s CPU      0.11s WALL (    1140 calls)
     h_psi        :     11.42s CPU     11.76s WALL (    1190 calls)
     g_psi        :      0.06s CPU      0.07s WALL (     890 calls)

     Called by h_psi:
     h_psi:calbec :      0.81s CPU      0.83s WALL (    1190 calls)
     vloc_psi     :      9.81s CPU     10.12s WALL (    1190 calls)
                                        0.00s GPU  (    1190 calls)
     add_vuspsi   :      0.72s CPU      0.74s WALL (    1190 calls)

     General routines
     calbec       :      1.66s CPU      1.70s WALL (    2040 calls)
     fft          :      0.07s CPU      0.07s WALL (      84 calls)
     ffts         :      0.00s CPU      0.01s WALL (       5 calls)
     fftw         :     10.23s CPU     10.54s WALL (   20412 calls)


     PWSCF        :     18.10s CPU     18.73s WALL


   This run was terminated on:  19:19:49  10Jan2026            

=------------------------------------------------------------------------------=
   JOB DONE.
=------------------------------------------------------------------------------=
