
     Program PWSCF v.7.5 starts on 10Jan2026 at 19:19: 6 

     This program is part of the open-source Quantum ESPRESSO suite
     for quantum simulation of materials; please cite
         "P. Giannozzi et al., J. Phys.:Condens. Matter 21 395502 (2009);
         "P. Giannozzi et al., J. Phys.:Condens. Matter 29 465901 (2017);
         "P. Giannozzi et al., J. Chem. Phys. 152 154105 (2020);
          URL http://www.quantum-espresso.org", 
     in publications or presentations arising from this work. More details at
     http://www.quantum-espresso.org/quote

     Serial version
     1125 MiB available memory on the printing compute node when the environment starts

     Waiting for input...
     Reading input from standard input

     Current dimensions of program PWSCF are:
     Max number of different atomic species (ntypx) = 10
     Max number of k-points (npk) =  40000
     Max angular momentum in pseudopotentials (lmaxx) =  4


     G-vector sticks info
     --------------------
     sticks:   dense  smooth     PW     G-vecs:    dense   smooth      PW
     Sum         745     745    223                18961    18961    3051

     Using Slab Decomposition



     bravais-lattice index     =            4
     lattice parameter (alat)  =       5.8260  a.u.
     unit-cell volume          =     195.5883 (a.u.)^3
     number of atoms/cell      =            3
     number of atomic types    =            2
     number of electrons       =        16.00
     number of Kohn-Sham states=           12
     kinetic-energy cutoff     =      80.0000  Ry
     charge density cutoff     =     320.0000  Ry
     scf convergence threshold =      1.0E-06
     mixing beta               =       0.7000
     number of iterations used =            8  plain     mixing
     Exchange-correlation= PBE
                           (   1   4   3   4   0   0   0)

     celldm(1)=   5.826038  celldm(2)=   0.000000  celldm(3)=   1.142069
     celldm(4)=   0.000000  celldm(5)=   0.000000  celldm(6)=   0.000000

     crystal axes: (cart. coord. in units of alat)
               a(1) = (   1.000000   0.000000   0.000000 )  
               a(2) = (  -0.500000   0.866025   0.000000 )  
               a(3) = (   0.000000   0.000000   1.142069 )  

     reciprocal axes: (cart. coord. in units 2 pi/alat)
               b(1) = (  1.000000  0.577350 -0.000000 )  
               b(2) = (  0.000000  1.154701  0.000000 )  
               b(3) = (  0.000000 -0.000000  0.875604 )  


     PseudoPot. # 1 for Mg read from file:
     ./PSEUDO/Mg_ONCV_PBE_sr.upf
     MD5 check sum: f927bdb32a17e5444945ae8f6d999e45
     Pseudo is Norm-conserving, Zval = 10.0
     Generated using ONCVPSP code by D. R. Hamann
     Using radial grid of 1510 points,  4 beta functions with: 
                l(1) =   0
                l(2) =   0
                l(3) =   1
                l(4) =   1

     PseudoPot. # 2 for B  read from file:
     ./PSEUDO/B_ONCV_PBE_sr.upf
     MD5 check sum: 12e13f68e8dc593c0a1d43390bab284b
     Pseudo is Norm-conserving + core correction, Zval =  3.0
     Generated using ONCVPSP code by D. R. Hamann
     Using radial grid of 1534 points,  4 beta functions with: 
                l(1) =   0
                l(2) =   0
                l(3) =   1
                l(4) =   1

     atomic species   valence    mass     pseudopotential
     Mg               10.00    24.30500     Mg( 1.00)
     B                 3.00    10.81100     B ( 1.00)

     24 Sym. Ops., with inversion, found



   Cartesian axes

     site n.     atom                  positions (alat units)
         1        Mg     tau(   1) = (   0.0000000   0.0000000   0.0000000  )
         2        B      tau(   2) = (   0.0000000   0.5773503   0.5710347  )
         3        B      tau(   3) = (   0.5000000   0.2886751   0.5710347  )

     number of k points=    50  Gaussian smearing, width (Ry)=  0.0400
                       cart. coord. in units 2pi/alat
        k(    1) = (   0.0000000   0.0000000   0.0000000), wk =   0.0039062
        k(    2) = (   0.0000000   0.0000000   0.1094504), wk =   0.0078125
        k(    3) = (   0.0000000   0.0000000   0.2189009), wk =   0.0078125
        k(    4) = (   0.0000000   0.0000000   0.3283513), wk =   0.0078125
        k(    5) = (   0.0000000   0.0000000  -0.4378018), wk =   0.0039062
        k(    6) = (   0.0000000   0.1443376   0.0000000), wk =   0.0234375
        k(    7) = (   0.0000000   0.1443376   0.1094504), wk =   0.0468750
        k(    8) = (   0.0000000   0.1443376   0.2189009), wk =   0.0468750
        k(    9) = (   0.0000000   0.1443376   0.3283513), wk =   0.0468750
        k(   10) = (   0.0000000   0.1443376  -0.4378018), wk =   0.0234375
        k(   11) = (   0.0000000   0.2886751   0.0000000), wk =   0.0234375
        k(   12) = (   0.0000000   0.2886751   0.1094504), wk =   0.0468750
        k(   13) = (   0.0000000   0.2886751   0.2189009), wk =   0.0468750
        k(   14) = (   0.0000000   0.2886751   0.3283513), wk =   0.0468750
        k(   15) = (   0.0000000   0.2886751  -0.4378018), wk =   0.0234375
        k(   16) = (   0.0000000   0.4330127   0.0000000), wk =   0.0234375
        k(   17) = (   0.0000000   0.4330127   0.1094504), wk =   0.0468750
        k(   18) = (   0.0000000   0.4330127   0.2189009), wk =   0.0468750
        k(   19) = (   0.0000000   0.4330127   0.3283513), wk =   0.0468750
        k(   20) = (   0.0000000   0.4330127  -0.4378018), wk =   0.0234375
        k(   21) = (   0.0000000  -0.5773503   0.0000000), wk =   0.0117188
        k(   22) = (   0.0000000  -0.5773503   0.1094504), wk =   0.0234375
        k(   23) = (   0.0000000  -0.5773503   0.2189009), wk =   0.0234375
        k(   24) = (   0.0000000  -0.5773503   0.3283513), wk =   0.0234375
        k(   25) = (   0.0000000  -0.5773503  -0.4378018), wk =   0.0117188
        k(   26) = (   0.1250000   0.2165064   0.0000000), wk =   0.0234375
        k(   27) = (   0.1250000   0.2165064   0.1094504), wk =   0.0468750
        k(   28) = (   0.1250000   0.2165064   0.2189009), wk =   0.0468750
        k(   29) = (   0.1250000   0.2165064   0.3283513), wk =   0.0468750
        k(   30) = (   0.1250000   0.2165064  -0.4378018), wk =   0.0234375
        k(   31) = (   0.1250000   0.3608439   0.0000000), wk =   0.0468750
        k(   32) = (   0.1250000   0.3608439   0.1094504), wk =   0.0937500
        k(   33) = (   0.1250000   0.3608439   0.2189009), wk =   0.0937500
        k(   34) = (   0.1250000   0.3608439   0.3283513), wk =   0.0937500
        k(   35) = (   0.1250000   0.3608439  -0.4378018), wk =   0.0468750
        k(   36) = (   0.1250000   0.5051815   0.0000000), wk =   0.0468750
        k(   37) = (   0.1250000   0.5051815   0.1094504), wk =   0.0937500
        k(   38) = (   0.1250000   0.5051815   0.2189009), wk =   0.0937500
        k(   39) = (   0.1250000   0.5051815   0.3283513), wk =   0.0937500
        k(   40) = (   0.1250000   0.5051815  -0.4378018), wk =   0.0468750
        k(   41) = (   0.2500000   0.4330127   0.0000000), wk =   0.0234375
        k(   42) = (   0.2500000   0.4330127   0.1094504), wk =   0.0468750
        k(   43) = (   0.2500000   0.4330127   0.2189009), wk =   0.0468750
        k(   44) = (   0.2500000   0.4330127   0.3283513), wk =   0.0468750
        k(   45) = (   0.2500000   0.4330127  -0.4378018), wk =   0.0234375
        k(   46) = (   0.2500000   0.5773503   0.0000000), wk =   0.0234375
        k(   47) = (   0.2500000   0.5773503   0.1094504), wk =   0.0468750
        k(   48) = (   0.2500000   0.5773503   0.2189009), wk =   0.0468750
        k(   49) = (   0.2500000   0.5773503   0.3283513), wk =   0.0468750
        k(   50) = (   0.2500000   0.5773503  -0.4378018), wk =   0.0234375

     Dense  grid:    18961 G-vectors     FFT dimensions: (  36,  36,  40)

     Estimated max dynamical RAM per process >      37.54 MB

     Initial potential from superposition of free atoms

     starting charge      15.9987, renormalised to      16.0000
     Starting wfcs are   13 randomized atomic wfcs

     total cpu time spent up to now is        0.7 secs

     Self-consistent Calculation

     iteration #  1     ecut=    80.00 Ry     beta= 0.70
     Davidson diagonalization with overlap
     ethr =  1.00E-02,  avg # of iterations =  4.1

     total cpu time spent up to now is        2.3 secs

     total energy              =    -130.49338930 Ry
     estimated scf accuracy    <       0.31108257 Ry

     iteration #  2     ecut=    80.00 Ry     beta= 0.70
     Davidson diagonalization with overlap
     ethr =  1.94E-03,  avg # of iterations =  2.5

     total cpu time spent up to now is        3.7 secs

     total energy              =    -130.57758419 Ry
     estimated scf accuracy    <       0.05109440 Ry

     iteration #  3     ecut=    80.00 Ry     beta= 0.70
     Davidson diagonalization with overlap
     ethr =  3.19E-04,  avg # of iterations =  2.5

     total cpu time spent up to now is        4.9 secs

     total energy              =    -130.58724656 Ry
     estimated scf accuracy    <       0.00035002 Ry

     iteration #  4     ecut=    80.00 Ry     beta= 0.70
     Davidson diagonalization with overlap
     ethr =  2.19E-06,  avg # of iterations =  6.3

     total cpu time spent up to now is        6.7 secs

     total energy              =    -130.58732610 Ry
     estimated scf accuracy    <       0.00001036 Ry

     iteration #  5     ecut=    80.00 Ry     beta= 0.70
     Davidson diagonalization with overlap
     ethr =  6.48E-08,  avg # of iterations =  2.2

     total cpu time spent up to now is        8.0 secs

     End of self-consistent calculation

          k = 0.0000 0.0000 0.0000 (  2377 PWs)   bands (ev):

   -66.0400 -32.8198 -32.8198 -32.8021  -3.2316   6.2590   9.5479   9.5479
    10.8759  15.5095  15.5095  17.2889

          k = 0.0000 0.0000 0.1095 (  2353 PWs)   bands (ev):

   -66.0400 -32.8197 -32.8197 -32.8031  -3.0970   5.2942   9.5984   9.5984
    12.1576  15.5567  15.5567  17.2667

          k = 0.0000 0.0000 0.2189 (  2365 PWs)   bands (ev):

   -66.0399 -32.8196 -32.8196 -32.8057  -2.7204   3.6788   9.7250   9.7250
    14.7123  15.6765  15.6765  17.2128

          k = 0.0000 0.0000 0.3284 (  2359 PWs)   bands (ev):

   -66.0398 -32.8194 -32.8194 -32.8083  -2.2214   2.3367   9.8593   9.8593
    15.8064  15.8064  17.1590  17.5214

          k = 0.0000 0.0000-0.4378 (  2358 PWs)   bands (ev):

   -66.0398 -32.8193 -32.8193 -32.8094  -1.9452   1.7700   9.9174   9.9174
    15.8635  15.8635  17.1367  19.0533

          k = 0.0000 0.1443 0.0000 (  2383 PWs)   bands (ev):

   -66.0395 -32.8256 -32.8212 -32.8012  -2.9594   6.5237   8.2836   8.9694
    11.1222  15.2617  16.6345  18.2010

          k = 0.0000 0.1443 0.1095 (  2379 PWs)   bands (ev):

   -66.0395 -32.8255 -32.8211 -32.8023  -2.8267   5.5668   8.3488   9.0171
    12.3787  15.3451  16.6850  17.1894

          k = 0.0000 0.1443 0.2189 (  2368 PWs)   bands (ev):

   -66.0394 -32.8253 -32.8209 -32.8048  -2.4562   3.9651   8.5103   9.1367
    14.7597  15.6710  16.3584  16.8137

          k = 0.0000 0.1443 0.3284 (  2368 PWs)   bands (ev):

   -66.0393 -32.8251 -32.8208 -32.8074  -1.9680   2.6381   8.6868   9.2634
    15.5118  15.7962  16.9540  17.8124

          k = 0.0000 0.1443-0.4378 (  2358 PWs)   bands (ev):

   -66.0393 -32.8250 -32.8207 -32.8085  -1.6999   2.0810   8.7654   9.3181
    15.3678  15.8169  17.0162  19.3964

          k = 0.0000 0.2887 0.0000 (  2380 PWs)   bands (ev):

   -66.0383 -32.8394 -32.8246 -32.7992  -2.1508   5.8061   7.3023   7.9812
    11.8441  14.5514  16.0227  19.1930

          k = 0.0000 0.2887 0.1095 (  2373 PWs)   bands (ev):

   -66.0383 -32.8393 -32.8245 -32.8002  -2.0237   5.8749   6.3866   8.0250
    12.9854  14.6205  15.3290  19.2464

          k = 0.0000 0.2887 0.2189 (  2357 PWs)   bands (ev):

   -66.0382 -32.8390 -32.8243 -32.8027  -1.6708   4.8047   6.1073   8.1348
    13.6191  14.8105  15.9971  19.3743

          k = 0.0000 0.2887 0.3284 (  2352 PWs)   bands (ev):

   -66.0381 -32.8388 -32.8241 -32.8052  -1.2128   3.5246   6.3441   8.2507
    12.7620  15.2441  18.4386  19.4034

          k = 0.0000 0.2887-0.4378 (  2350 PWs)   bands (ev):

   -66.0381 -32.8387 -32.8240 -32.8062  -0.9667   2.9942   6.4550   8.3008
    12.4138  15.4324  19.2387  19.6438

          k = 0.0000 0.4330 0.0000 (  2362 PWs)   bands (ev):

   -66.0371 -32.8532 -32.8280 -32.7971  -0.8335   3.2815   7.2616   8.5007
    12.7791  13.6366  14.1707  17.3799

          k = 0.0000 0.4330 0.1095 (  2364 PWs)   bands (ev):

   -66.0371 -32.8531 -32.8279 -32.7981  -0.7152   3.3761   7.3029   7.6266
    12.4521  13.7408  14.8688  18.3566

          k = 0.0000 0.4330 0.2189 (  2366 PWs)   bands (ev):

   -66.0370 -32.8528 -32.8277 -32.8005  -0.3895   3.6286   6.1396   7.4063
    11.0982  14.3154  16.9854  19.5255

          k = 0.0000 0.4330 0.3284 (  2357 PWs)   bands (ev):

   -66.0369 -32.8525 -32.8274 -32.8029   0.0245   3.9288   4.9220   7.5153
    10.0230  14.8052  18.6016  18.7329

          k = 0.0000 0.4330-0.4378 (  2350 PWs)   bands (ev):

   -66.0369 -32.8524 -32.8273 -32.8039   0.2406   4.0786   4.4215   7.5622
     9.6105  15.0550  18.3278  18.3820

          k = 0.0000-0.5774 0.0000 (  2370 PWs)   bands (ev):

   -66.0366 -32.8589 -32.8294 -32.7963   0.6634   1.3600   7.0082   9.4192
    12.2756  13.1081  14.5323  16.3099

          k = 0.0000-0.5774 0.1095 (  2362 PWs)   bands (ev):

   -66.0366 -32.8588 -32.8293 -32.7973   0.7699   1.4685   7.0487   8.6338
    11.0993  13.6222  15.6311  17.2933

          k = 0.0000-0.5774 0.2189 (  2368 PWs)   bands (ev):

   -66.0365 -32.8585 -32.8290 -32.7997   1.0636   1.7589   7.1498   7.2490
     9.5424  14.1278  17.9417  18.7335

          k = 0.0000-0.5774 0.3284 (  2376 PWs)   bands (ev):

   -66.0364 -32.8582 -32.8288 -32.8020   1.4367   2.1054   6.1062   7.2564
     8.3658  14.6409  18.3819  18.4768

          k = 0.0000-0.5774-0.4378 (  2372 PWs)   bands (ev):

   -66.0364 -32.8581 -32.8287 -32.8030   1.6309   2.2731   5.6436   7.3024
     7.9139  14.9139  17.9821  18.1257

          k = 0.1250 0.2165 0.0000 (  2385 PWs)   bands (ev):

   -66.0387 -32.8347 -32.8242 -32.7998  -2.4190   6.8266   7.0467   7.7170
    11.6670  15.8028  16.6295  16.7235

          k = 0.1250 0.2165 0.1095 (  2367 PWs)   bands (ev):

   -66.0386 -32.8346 -32.8241 -32.8008  -2.2901   6.1029   6.9000   7.7837
    12.8895  15.6780  15.9052  17.1778

          k = 0.1250 0.2165 0.2189 (  2362 PWs)   bands (ev):

   -66.0385 -32.8344 -32.8240 -32.8033  -1.9314   4.5299   7.0917   7.9210
    14.5386  15.1910  16.3071  17.4481

          k = 0.1250 0.2165 0.3284 (  2358 PWs)   bands (ev):

   -66.0385 -32.8342 -32.8238 -32.8058  -1.4637   3.2327   7.3097   8.0643
    13.6707  16.2038  17.6628  17.9595

          k = 0.1250 0.2165-0.4378 (  2356 PWs)   bands (ev):

   -66.0384 -32.8341 -32.8237 -32.8068  -1.2106   2.6935   7.4099   8.1265
    13.3431  16.3933  17.7552  17.8930

          k = 0.1250 0.3608 0.0000 (  2351 PWs)   bands (ev):

   -66.0375 -32.8471 -32.8290 -32.7977  -1.3554   4.6056   6.5376   8.0556
    12.6743  14.5797  15.3850  17.5430

          k = 0.1250 0.3608 0.1095 (  2364 PWs)   bands (ev):

   -66.0375 -32.8470 -32.8289 -32.7988  -1.2337   4.6915   6.5830   7.1743
    13.5031  13.9510  15.6874  18.1561

          k = 0.1250 0.3608 0.2189 (  2363 PWs)   bands (ev):

   -66.0374 -32.8468 -32.8287 -32.8012  -0.8974   4.9152   5.6303   6.7653
    12.2322  15.6165  16.4960  17.9742

          k = 0.1250 0.3608 0.3284 (  2362 PWs)   bands (ev):

   -66.0373 -32.8465 -32.8285 -32.8036  -0.4668   4.3781   5.1986   6.9221
    11.2081  16.0315  16.6803  19.2560

          k = 0.1250 0.3608-0.4378 (  2352 PWs)   bands (ev):

   -66.0372 -32.8463 -32.8284 -32.8046  -0.2396   3.8741   5.3225   6.9935
    10.8186  16.0953  16.4329  19.7280

          k = 0.1250 0.5052 0.0000 (  2356 PWs)   bands (ev):

   -66.0366 -32.8558 -32.8325 -32.7963   0.1758   2.3078   5.9891   9.3249
    12.5847  13.8919  14.8396  16.8591

          k = 0.1250 0.5052 0.1095 (  2364 PWs)   bands (ev):

   -66.0366 -32.8557 -32.8324 -32.7973   0.2873   2.4081   6.0491   8.4971
    11.5570  14.7536  15.5691  17.4730

          k = 0.1250 0.5052 0.2189 (  2362 PWs)   bands (ev):

   -66.0365 -32.8554 -32.8321 -32.7996   0.5930   2.6775   6.2010   7.0693
    10.0687  15.3213  16.8271  17.8989

          k = 0.1250 0.5052 0.3284 (  2360 PWs)   bands (ev):

   -66.0364 -32.8551 -32.8319 -32.8020   0.9773   3.0014   5.8879   6.3828
     8.9325  15.3927  16.2532  20.3611

          k = 0.1250 0.5052-0.4378 (  2364 PWs)   bands (ev):

   -66.0364 -32.8550 -32.8318 -32.8030   1.1748   3.1601   5.4186   6.4572
     8.4937  15.2361  16.2034  21.3014

          k = 0.2500 0.4330 0.0000 (  2352 PWs)   bands (ev):

   -66.0366 -32.8515 -32.8367 -32.7963  -0.0672   3.4948   4.6139   9.2413
    12.9190  13.9132  16.2297  17.5293

          k = 0.2500 0.4330 0.1095 (  2357 PWs)   bands (ev):

   -66.0366 -32.8514 -32.8366 -32.7973   0.0461   3.5879   4.6893   8.3842
    12.0284  15.0472  16.8273  17.1972

          k = 0.2500 0.4330 0.2189 (  2371 PWs)   bands (ev):

   -66.0365 -32.8511 -32.8364 -32.7996   0.3567   3.8390   4.8828   6.9253
    10.6293  15.3867  17.2597  18.5919

          k = 0.2500 0.4330 0.3284 (  2356 PWs)   bands (ev):

   -66.0364 -32.8508 -32.8361 -32.8020   0.7474   4.1424   5.0967   5.7394
     9.5492  14.3188  18.4587  19.3693

          k = 0.2500 0.4330-0.4378 (  2366 PWs)   bands (ev):

   -66.0364 -32.8507 -32.8360 -32.8030   0.9486   4.2911   5.2095   5.2455
     9.1328  13.9253  18.6382  19.5987

          k = 0.2500 0.5774 0.0000 (  2374 PWs)   bands (ev):

   -66.0363 -32.8519 -32.8414 -32.7957   1.3771   1.9951   4.0256  10.3150
    11.6676  15.0257  15.4708  17.8374

          k = 0.2500 0.5774 0.1095 (  2359 PWs)   bands (ev):

   -66.0363 -32.8517 -32.8413 -32.7967   1.4806   2.0968   4.1075   9.5007
    10.7762  16.1307  16.3703  16.5117

          k = 0.2500 0.5774 0.2189 (  2364 PWs)   bands (ev):

   -66.0362 -32.8514 -32.8410 -32.7990   1.7641   2.3704   4.3209   8.1034
     9.3375  14.7356  18.0368  18.3649

          k = 0.2500 0.5774 0.3284 (  2367 PWs)   bands (ev):

   -66.0361 -32.8512 -32.8408 -32.8014   2.1199   2.7002   4.5633   6.9710
     8.2082  13.5898  18.7327  20.6989

          k = 0.2500 0.5774-0.4378 (  2368 PWs)   bands (ev):

   -66.0361 -32.8511 -32.8407 -32.8023   2.3021   2.8615   4.6763   6.5190
     7.7661  13.1744  18.9151  21.9415

     the Fermi energy is     9.1964 ev

!    total energy              =    -130.58732838 Ry
     estimated scf accuracy    <       0.00000026 Ry
     smearing contrib. (-TS)   =      -0.00711378 Ry
     internal energy E=F+TS    =    -130.58021460 Ry

     The total energy is F=E-TS. E is the sum of the following terms:
     one-electron contribution =     -76.50997480 Ry
     hartree contribution      =      40.67288500 Ry
     xc contribution           =     -20.84145992 Ry
     ewald contribution        =     -73.90166488 Ry

     convergence has been achieved in   5 iterations

     Forces acting on atoms (cartesian axes, Ry/au):

     atom    1 type  1   force =     0.00000000    0.00000000   -0.00000000
     atom    2 type  2   force =    -0.00000000   -0.00000000    0.00000000
     atom    3 type  2   force =     0.00000000    0.00000000    0.00000000

     Total force =     0.000000     Total SCF correction =     0.000000


     Computing stress (Cartesian axis) and pressure

          total   stress  (Ry/bohr**3)                   (kbar)     P=       -7.89
  -0.00008149   0.00000000   0.00000000          -11.99        0.00        0.00
   0.00000000  -0.00008149   0.00000000            0.00      -11.99        0.00
   0.00000000   0.00000000   0.00000214            0.00        0.00        0.31


     Writing all to output data dir ./tmp/MgB2.save/ :
     XML data file, charge density, pseudopotentials, collected wavefunctions

     init_run     :      0.63s CPU      0.66s WALL (       1 calls)
     electrons    :      7.07s CPU      7.36s WALL (       1 calls)
     forces       :      0.15s CPU      0.16s WALL (       1 calls)
     stress       :      0.56s CPU      0.58s WALL (       1 calls)

     Called by init_run:
     wfcinit      :      0.49s CPU      0.51s WALL (       1 calls)
     potinit      :      0.05s CPU      0.05s WALL (       1 calls)
     hinit0       :      0.08s CPU      0.08s WALL (       1 calls)

     Called by electrons:
     c_bands      :      6.21s CPU      6.46s WALL (       5 calls)
     sum_band     :      0.80s CPU      0.83s WALL (       5 calls)
     v_of_rho     :      0.07s CPU      0.07s WALL (       6 calls)
     mix_rho      :      0.00s CPU      0.01s WALL (       5 calls)

     Called by c_bands:
     init_us_2    :      0.17s CPU      0.18s WALL (     650 calls)
     cegterg      :      6.03s CPU      6.27s WALL (     250 calls)

     Called by *egterg:
     cdiaghg      :      0.10s CPU      0.10s WALL (    1131 calls)
     h_psi        :      4.97s CPU      5.19s WALL (    1181 calls)
     g_psi        :      0.03s CPU      0.04s WALL (     881 calls)

     Called by h_psi:
     h_psi:calbec :      0.41s CPU      0.42s WALL (    1181 calls)
     vloc_psi     :      4.13s CPU      4.32s WALL (    1181 calls)
                                        0.00s GPU  (    1181 calls)
     add_vuspsi   :      0.38s CPU      0.40s WALL (    1181 calls)

     General routines
     calbec       :      0.87s CPU      0.90s WALL (    2031 calls)
     fft          :      0.03s CPU      0.03s WALL (      84 calls)
     ffts         :      0.00s CPU      0.00s WALL (       5 calls)
     fftw         :      4.19s CPU      4.45s WALL (   20376 calls)


     PWSCF        :      8.44s CPU      8.81s WALL


   This run was terminated on:  19:19:15  10Jan2026            

=------------------------------------------------------------------------------=
   JOB DONE.
=------------------------------------------------------------------------------=
