
     Program PWSCF v.7.5 starts on 10Jan2026 at 19:25:33 

     This program is part of the open-source Quantum ESPRESSO suite
     for quantum simulation of materials; please cite
         "P. Giannozzi et al., J. Phys.:Condens. Matter 21 395502 (2009);
         "P. Giannozzi et al., J. Phys.:Condens. Matter 29 465901 (2017);
         "P. Giannozzi et al., J. Chem. Phys. 152 154105 (2020);
          URL http://www.quantum-espresso.org", 
     in publications or presentations arising from this work. More details at
     http://www.quantum-espresso.org/quote

     Serial version
     1419 MiB available memory on the printing compute node when the environment starts

     Waiting for input...
     Reading input from standard input

     Current dimensions of program PWSCF are:
     Max number of different atomic species (ntypx) = 10
     Max number of k-points (npk) =  40000
     Max angular momentum in pseudopotentials (lmaxx) =  4


     G-vector sticks info
     --------------------
     sticks:   dense  smooth     PW     G-vecs:    dense   smooth      PW
     Sum         847     847    253                22607    22607    3645

     Using Slab Decomposition



     bravais-lattice index     =            4
     lattice parameter (alat)  =       5.8260  a.u.
     unit-cell volume          =     195.5883 (a.u.)^3
     number of atoms/cell      =            3
     number of atomic types    =            2
     number of electrons       =        16.00
     number of Kohn-Sham states=           12
     kinetic-energy cutoff     =      90.0000  Ry
     charge density cutoff     =     360.0000  Ry
     scf convergence threshold =      1.0E-06
     mixing beta               =       0.7000
     number of iterations used =            8  plain     mixing
     Exchange-correlation= PBE
                           (   1   4   3   4   0   0   0)

     celldm(1)=   5.826038  celldm(2)=   0.000000  celldm(3)=   1.142069
     celldm(4)=   0.000000  celldm(5)=   0.000000  celldm(6)=   0.000000

     crystal axes: (cart. coord. in units of alat)
               a(1) = (   1.000000   0.000000   0.000000 )  
               a(2) = (  -0.500000   0.866025   0.000000 )  
               a(3) = (   0.000000   0.000000   1.142069 )  

     reciprocal axes: (cart. coord. in units 2 pi/alat)
               b(1) = (  1.000000  0.577350 -0.000000 )  
               b(2) = (  0.000000  1.154701  0.000000 )  
               b(3) = (  0.000000 -0.000000  0.875604 )  


     PseudoPot. # 1 for Mg read from file:
     ./PSEUDO/Mg_ONCV_PBE_sr.upf
     MD5 check sum: f927bdb32a17e5444945ae8f6d999e45
     Pseudo is Norm-conserving, Zval = 10.0
     Generated using ONCVPSP code by D. R. Hamann
     Using radial grid of 1510 points,  4 beta functions with: 
                l(1) =   0
                l(2) =   0
                l(3) =   1
                l(4) =   1

     PseudoPot. # 2 for B  read from file:
     ./PSEUDO/B_ONCV_PBE_sr.upf
     MD5 check sum: 12e13f68e8dc593c0a1d43390bab284b
     Pseudo is Norm-conserving + core correction, Zval =  3.0
     Generated using ONCVPSP code by D. R. Hamann
     Using radial grid of 1534 points,  4 beta functions with: 
                l(1) =   0
                l(2) =   0
                l(3) =   1
                l(4) =   1

     atomic species   valence    mass     pseudopotential
     Mg               10.00    24.30500     Mg( 1.00)
     B                 3.00    10.81100     B ( 1.00)

     24 Sym. Ops., with inversion, found



   Cartesian axes

     site n.     atom                  positions (alat units)
         1        Mg     tau(   1) = (   0.0000000   0.0000000   0.0000000  )
         2        B      tau(   2) = (   0.0000000   0.5773503   0.5710347  )
         3        B      tau(   3) = (   0.5000000   0.2886751   0.5710347  )

     number of k points=    50  Gaussian smearing, width (Ry)=  0.0400
                       cart. coord. in units 2pi/alat
        k(    1) = (   0.0000000   0.0000000   0.0000000), wk =   0.0039062
        k(    2) = (   0.0000000   0.0000000   0.1094504), wk =   0.0078125
        k(    3) = (   0.0000000   0.0000000   0.2189009), wk =   0.0078125
        k(    4) = (   0.0000000   0.0000000   0.3283513), wk =   0.0078125
        k(    5) = (   0.0000000   0.0000000  -0.4378018), wk =   0.0039062
        k(    6) = (   0.0000000   0.1443376   0.0000000), wk =   0.0234375
        k(    7) = (   0.0000000   0.1443376   0.1094504), wk =   0.0468750
        k(    8) = (   0.0000000   0.1443376   0.2189009), wk =   0.0468750
        k(    9) = (   0.0000000   0.1443376   0.3283513), wk =   0.0468750
        k(   10) = (   0.0000000   0.1443376  -0.4378018), wk =   0.0234375
        k(   11) = (   0.0000000   0.2886751   0.0000000), wk =   0.0234375
        k(   12) = (   0.0000000   0.2886751   0.1094504), wk =   0.0468750
        k(   13) = (   0.0000000   0.2886751   0.2189009), wk =   0.0468750
        k(   14) = (   0.0000000   0.2886751   0.3283513), wk =   0.0468750
        k(   15) = (   0.0000000   0.2886751  -0.4378018), wk =   0.0234375
        k(   16) = (   0.0000000   0.4330127   0.0000000), wk =   0.0234375
        k(   17) = (   0.0000000   0.4330127   0.1094504), wk =   0.0468750
        k(   18) = (   0.0000000   0.4330127   0.2189009), wk =   0.0468750
        k(   19) = (   0.0000000   0.4330127   0.3283513), wk =   0.0468750
        k(   20) = (   0.0000000   0.4330127  -0.4378018), wk =   0.0234375
        k(   21) = (   0.0000000  -0.5773503   0.0000000), wk =   0.0117188
        k(   22) = (   0.0000000  -0.5773503   0.1094504), wk =   0.0234375
        k(   23) = (   0.0000000  -0.5773503   0.2189009), wk =   0.0234375
        k(   24) = (   0.0000000  -0.5773503   0.3283513), wk =   0.0234375
        k(   25) = (   0.0000000  -0.5773503  -0.4378018), wk =   0.0117188
        k(   26) = (   0.1250000   0.2165064   0.0000000), wk =   0.0234375
        k(   27) = (   0.1250000   0.2165064   0.1094504), wk =   0.0468750
        k(   28) = (   0.1250000   0.2165064   0.2189009), wk =   0.0468750
        k(   29) = (   0.1250000   0.2165064   0.3283513), wk =   0.0468750
        k(   30) = (   0.1250000   0.2165064  -0.4378018), wk =   0.0234375
        k(   31) = (   0.1250000   0.3608439   0.0000000), wk =   0.0468750
        k(   32) = (   0.1250000   0.3608439   0.1094504), wk =   0.0937500
        k(   33) = (   0.1250000   0.3608439   0.2189009), wk =   0.0937500
        k(   34) = (   0.1250000   0.3608439   0.3283513), wk =   0.0937500
        k(   35) = (   0.1250000   0.3608439  -0.4378018), wk =   0.0468750
        k(   36) = (   0.1250000   0.5051815   0.0000000), wk =   0.0468750
        k(   37) = (   0.1250000   0.5051815   0.1094504), wk =   0.0937500
        k(   38) = (   0.1250000   0.5051815   0.2189009), wk =   0.0937500
        k(   39) = (   0.1250000   0.5051815   0.3283513), wk =   0.0937500
        k(   40) = (   0.1250000   0.5051815  -0.4378018), wk =   0.0468750
        k(   41) = (   0.2500000   0.4330127   0.0000000), wk =   0.0234375
        k(   42) = (   0.2500000   0.4330127   0.1094504), wk =   0.0468750
        k(   43) = (   0.2500000   0.4330127   0.2189009), wk =   0.0468750
        k(   44) = (   0.2500000   0.4330127   0.3283513), wk =   0.0468750
        k(   45) = (   0.2500000   0.4330127  -0.4378018), wk =   0.0234375
        k(   46) = (   0.2500000   0.5773503   0.0000000), wk =   0.0234375
        k(   47) = (   0.2500000   0.5773503   0.1094504), wk =   0.0468750
        k(   48) = (   0.2500000   0.5773503   0.2189009), wk =   0.0468750
        k(   49) = (   0.2500000   0.5773503   0.3283513), wk =   0.0468750
        k(   50) = (   0.2500000   0.5773503  -0.4378018), wk =   0.0234375

     Dense  grid:    22607 G-vectors     FFT dimensions: (  36,  36,  45)

     Estimated max dynamical RAM per process >      44.43 MB

     Initial potential from superposition of free atoms

     starting charge      15.9987, renormalised to      16.0000
     Starting wfcs are   13 randomized atomic wfcs

     total cpu time spent up to now is        0.8 secs

     Self-consistent Calculation

     iteration #  1     ecut=    90.00 Ry     beta= 0.70
     Davidson diagonalization with overlap
     ethr =  1.00E-02,  avg # of iterations =  4.2

     total cpu time spent up to now is        2.7 secs

     total energy              =    -130.49372093 Ry
     estimated scf accuracy    <       0.31055691 Ry

     iteration #  2     ecut=    90.00 Ry     beta= 0.70
     Davidson diagonalization with overlap
     ethr =  1.94E-03,  avg # of iterations =  2.6

     total cpu time spent up to now is        4.3 secs

     total energy              =    -130.57773286 Ry
     estimated scf accuracy    <       0.05074097 Ry

     iteration #  3     ecut=    90.00 Ry     beta= 0.70
     Davidson diagonalization with overlap
     ethr =  3.17E-04,  avg # of iterations =  2.4

     total cpu time spent up to now is        5.8 secs

     total energy              =    -130.58733976 Ry
     estimated scf accuracy    <       0.00034809 Ry

     iteration #  4     ecut=    90.00 Ry     beta= 0.70
     Davidson diagonalization with overlap
     ethr =  2.18E-06,  avg # of iterations =  6.3

     total cpu time spent up to now is        8.0 secs

     total energy              =    -130.58741765 Ry
     estimated scf accuracy    <       0.00001019 Ry

     iteration #  5     ecut=    90.00 Ry     beta= 0.70
     Davidson diagonalization with overlap
     ethr =  6.37E-08,  avg # of iterations =  2.1

     total cpu time spent up to now is        9.6 secs

     End of self-consistent calculation

          k = 0.0000 0.0000 0.0000 (  2835 PWs)   bands (ev):

   -66.0386 -32.8191 -32.8191 -32.8012  -3.2316   6.2589   9.5478   9.5478
    10.8759  15.5093  15.5093  17.2889

          k = 0.0000 0.0000 0.1095 (  2828 PWs)   bands (ev):

   -66.0386 -32.8190 -32.8190 -32.8023  -3.0970   5.2941   9.5983   9.5983
    12.1575  15.5564  15.5564  17.2670

          k = 0.0000 0.0000 0.2189 (  2816 PWs)   bands (ev):

   -66.0385 -32.8188 -32.8188 -32.8049  -2.7204   3.6787   9.7250   9.7250
    14.7122  15.6764  15.6764  17.2128

          k = 0.0000 0.0000 0.3284 (  2804 PWs)   bands (ev):

   -66.0384 -32.8186 -32.8186 -32.8075  -2.2215   2.3367   9.8592   9.8592
    15.8063  15.8063  17.1590  17.5213

          k = 0.0000 0.0000-0.4378 (  2804 PWs)   bands (ev):

   -66.0384 -32.8186 -32.8186 -32.8086  -1.9452   1.7700   9.9173   9.9173
    15.8635  15.8635  17.1367  19.0536

          k = 0.0000 0.1443 0.0000 (  2807 PWs)   bands (ev):

   -66.0381 -32.8248 -32.8205 -32.8004  -2.9594   6.5236   8.2836   8.9693
    11.1221  15.2616  16.6342  18.2010

          k = 0.0000 0.1443 0.1095 (  2817 PWs)   bands (ev):

   -66.0381 -32.8247 -32.8204 -32.8015  -2.8268   5.5667   8.3487   9.0171
    12.3786  15.3450  16.6847  17.1894

          k = 0.0000 0.1443 0.2189 (  2820 PWs)   bands (ev):

   -66.0380 -32.8245 -32.8202 -32.8040  -2.4562   3.9650   8.5103   9.1367
    14.7596  15.6709  16.3582  16.8136

          k = 0.0000 0.1443 0.3284 (  2814 PWs)   bands (ev):

   -66.0379 -32.8243 -32.8200 -32.8066  -1.9681   2.6381   8.6867   9.2634
    15.5117  15.7961  16.9540  17.8123

          k = 0.0000 0.1443-0.4378 (  2808 PWs)   bands (ev):

   -66.0379 -32.8243 -32.8199 -32.8076  -1.6999   2.0809   8.7654   9.3181
    15.3677  15.8168  17.0162  19.3963

          k = 0.0000 0.2887 0.0000 (  2817 PWs)   bands (ev):

   -66.0369 -32.8387 -32.8239 -32.7984  -2.1508   5.8060   7.3022   7.9811
    11.8439  14.5513  16.0226  19.1936

          k = 0.0000 0.2887 0.1095 (  2814 PWs)   bands (ev):

   -66.0369 -32.8386 -32.8238 -32.7994  -2.0238   5.8749   6.3866   8.0250
    12.9853  14.6205  15.3289  19.2461

          k = 0.0000 0.2887 0.2189 (  2820 PWs)   bands (ev):

   -66.0368 -32.8383 -32.8236 -32.8019  -1.6709   4.8046   6.1073   8.1347
    13.6190  14.8103  15.9969  19.3740

          k = 0.0000 0.2887 0.3284 (  2824 PWs)   bands (ev):

   -66.0367 -32.8381 -32.8234 -32.8043  -1.2128   3.5245   6.3440   8.2507
    12.7618  15.2439  18.4385  19.4028

          k = 0.0000 0.2887-0.4378 (  2814 PWs)   bands (ev):

   -66.0367 -32.8380 -32.8233 -32.8054  -0.9668   2.9941   6.4549   8.3008
    12.4136  15.4322  19.2384  19.6440

          k = 0.0000 0.4330 0.0000 (  2815 PWs)   bands (ev):

   -66.0358 -32.8525 -32.8272 -32.7963  -0.8335   3.2814   7.2616   8.5006
    12.7789  13.6365  14.1706  17.3796

          k = 0.0000 0.4330 0.1095 (  2820 PWs)   bands (ev):

   -66.0357 -32.8523 -32.8271 -32.7973  -0.7153   3.3760   7.3029   7.6265
    12.4520  13.7406  14.8686  18.3563

          k = 0.0000 0.4330 0.2189 (  2830 PWs)   bands (ev):

   -66.0356 -32.8520 -32.8269 -32.7997  -0.3896   3.6285   6.1395   7.4062
    11.0981  14.3153  16.9851  19.5251

          k = 0.0000 0.4330 0.3284 (  2826 PWs)   bands (ev):

   -66.0356 -32.8517 -32.8267 -32.8021   0.0245   3.9288   4.9219   7.5152
    10.0229  14.8051  18.6015  18.7319

          k = 0.0000 0.4330-0.4378 (  2830 PWs)   bands (ev):

   -66.0355 -32.8516 -32.8266 -32.8031   0.2406   4.0786   4.4214   7.5622
     9.6103  15.0548  18.3277  18.3807

          k = 0.0000-0.5774 0.0000 (  2820 PWs)   bands (ev):

   -66.0353 -32.8582 -32.8286 -32.7955   0.6633   1.3600   7.0082   9.4192
    12.2753  13.1080  14.5318  16.3099

          k = 0.0000-0.5774 0.1095 (  2824 PWs)   bands (ev):

   -66.0352 -32.8580 -32.8285 -32.7965   0.7699   1.4685   7.0486   8.6337
    11.0992  13.6222  15.6305  17.2932

          k = 0.0000-0.5774 0.2189 (  2822 PWs)   bands (ev):

   -66.0351 -32.8577 -32.8283 -32.7988   1.0635   1.7588   7.1498   7.2489
     9.5423  14.1278  17.9413  18.7334

          k = 0.0000-0.5774 0.3284 (  2828 PWs)   bands (ev):

   -66.0351 -32.8574 -32.8281 -32.8012   1.4367   2.1053   6.1060   7.2564
     8.3657  14.6408  18.3818  18.4758

          k = 0.0000-0.5774-0.4378 (  2836 PWs)   bands (ev):

   -66.0350 -32.8573 -32.8280 -32.8022   1.6309   2.2730   5.6434   7.3023
     7.9139  14.9136  17.9821  18.1247

          k = 0.1250 0.2165 0.0000 (  2817 PWs)   bands (ev):

   -66.0373 -32.8340 -32.8235 -32.7990  -2.4190   6.8266   7.0466   7.7169
    11.6669  15.8027  16.6294  16.7235

          k = 0.1250 0.2165 0.1095 (  2816 PWs)   bands (ev):

   -66.0373 -32.8339 -32.8234 -32.8000  -2.2901   6.1028   6.9000   7.7836
    12.8893  15.6779  15.9051  17.1776

          k = 0.1250 0.2165 0.2189 (  2821 PWs)   bands (ev):

   -66.0372 -32.8337 -32.8232 -32.8025  -1.9315   4.5298   7.0917   7.9210
    14.5385  15.1908  16.3069  17.4480

          k = 0.1250 0.2165 0.3284 (  2820 PWs)   bands (ev):

   -66.0371 -32.8334 -32.8230 -32.8050  -1.4637   3.2326   7.3096   8.0642
    13.6706  16.2036  17.6627  17.9593

          k = 0.1250 0.2165-0.4378 (  2814 PWs)   bands (ev):

   -66.0370 -32.8333 -32.8229 -32.8060  -1.2107   2.6935   7.4099   8.1265
    13.3430  16.3930  17.7551  17.8924

          k = 0.1250 0.3608 0.0000 (  2823 PWs)   bands (ev):

   -66.0361 -32.8464 -32.8283 -32.7969  -1.3554   4.6056   6.5375   8.0555
    12.6740  14.5796  15.3850  17.5428

          k = 0.1250 0.3608 0.1095 (  2814 PWs)   bands (ev):

   -66.0361 -32.8463 -32.8282 -32.7979  -1.2337   4.6914   6.5829   7.1742
    13.5031  13.9507  15.6874  18.1559

          k = 0.1250 0.3608 0.2189 (  2820 PWs)   bands (ev):

   -66.0360 -32.8460 -32.8279 -32.8003  -0.8975   4.9152   5.6302   6.7652
    12.2321  15.6163  16.4959  17.9734

          k = 0.1250 0.3608 0.3284 (  2823 PWs)   bands (ev):

   -66.0359 -32.8457 -32.8277 -32.8028  -0.4668   4.3780   5.1986   6.9220
    11.2079  16.0312  16.6799  19.2557

          k = 0.1250 0.3608-0.4378 (  2820 PWs)   bands (ev):

   -66.0359 -32.8456 -32.8276 -32.8038  -0.2397   3.8740   5.3225   6.9935
    10.8184  16.0948  16.4327  19.7279

          k = 0.1250 0.5052 0.0000 (  2814 PWs)   bands (ev):

   -66.0353 -32.8551 -32.8317 -32.7955   0.1758   2.3077   5.9890   9.3248
    12.5846  13.8916  14.8393  16.8588

          k = 0.1250 0.5052 0.1095 (  2821 PWs)   bands (ev):

   -66.0352 -32.8549 -32.8316 -32.7965   0.2873   2.4080   6.0490   8.4970
    11.5569  14.7535  15.5688  17.4728

          k = 0.1250 0.5052 0.2189 (  2822 PWs)   bands (ev):

   -66.0351 -32.8546 -32.8314 -32.7988   0.5930   2.6774   6.2009   7.0691
    10.0686  15.3212  16.8267  17.8980

          k = 0.1250 0.5052 0.3284 (  2830 PWs)   bands (ev):

   -66.0351 -32.8543 -32.8311 -32.8012   0.9772   3.0013   5.8877   6.3827
     8.9323  15.3925  16.2529  20.3606

          k = 0.1250 0.5052-0.4378 (  2828 PWs)   bands (ev):

   -66.0350 -32.8542 -32.8310 -32.8022   1.1748   3.1600   5.4184   6.4572
     8.4936  15.2358  16.2032  21.3006

          k = 0.2500 0.4330 0.0000 (  2813 PWs)   bands (ev):

   -66.0353 -32.8508 -32.8360 -32.7955  -0.0672   3.4947   4.6138   9.2412
    12.9189  13.9128  16.2294  17.5292

          k = 0.2500 0.4330 0.1095 (  2811 PWs)   bands (ev):

   -66.0352 -32.8507 -32.8359 -32.7965   0.0460   3.5879   4.6892   8.3841
    12.0283  15.0469  16.8270  17.1972

          k = 0.2500 0.4330 0.2189 (  2811 PWs)   bands (ev):

   -66.0351 -32.8504 -32.8356 -32.7988   0.3566   3.8389   4.8827   6.9252
    10.6291  15.3865  17.2595  18.5919

          k = 0.2500 0.4330 0.3284 (  2823 PWs)   bands (ev):

   -66.0351 -32.8501 -32.8354 -32.8012   0.7473   4.1424   5.0966   5.7392
     9.5490  14.3185  18.4584  19.3692

          k = 0.2500 0.4330-0.4378 (  2826 PWs)   bands (ev):

   -66.0350 -32.8500 -32.8353 -32.8022   0.9485   4.2911   5.2094   5.2453
     9.1326  13.9252  18.6378  19.5987

          k = 0.2500 0.5774 0.0000 (  2819 PWs)   bands (ev):

   -66.0349 -32.8511 -32.8407 -32.7949   1.3771   1.9951   4.0255  10.3149
    11.6676  15.0252  15.4705  17.8374

          k = 0.2500 0.5774 0.1095 (  2815 PWs)   bands (ev):

   -66.0349 -32.8510 -32.8406 -32.7958   1.4805   2.0967   4.1075   9.5006
    10.7761  16.1303  16.3698  16.5115

          k = 0.2500 0.5774 0.2189 (  2823 PWs)   bands (ev):

   -66.0348 -32.8507 -32.8403 -32.7982   1.7641   2.3703   4.3208   8.1032
     9.3374  14.7353  18.0367  18.3645

          k = 0.2500 0.5774 0.3284 (  2829 PWs)   bands (ev):

   -66.0347 -32.8504 -32.8400 -32.8005   2.1199   2.7001   4.5632   6.9707
     8.2080  13.5896  18.7325  20.6986

          k = 0.2500 0.5774-0.4378 (  2824 PWs)   bands (ev):

   -66.0347 -32.8503 -32.8399 -32.8015   2.3021   2.8614   4.6762   6.5187
     7.7659  13.1743  18.9149  21.9415

     the Fermi energy is     9.1963 ev

!    total energy              =    -130.58741978 Ry
     estimated scf accuracy    <       0.00000024 Ry
     smearing contrib. (-TS)   =      -0.00711395 Ry
     internal energy E=F+TS    =    -130.58030583 Ry

     The total energy is F=E-TS. E is the sum of the following terms:
     one-electron contribution =     -76.51081228 Ry
     hartree contribution      =      40.67361696 Ry
     xc contribution           =     -20.84144562 Ry
     ewald contribution        =     -73.90166488 Ry

     convergence has been achieved in   5 iterations

     Forces acting on atoms (cartesian axes, Ry/au):

     atom    1 type  1   force =    -0.00000000   -0.00000000    0.00000000
     atom    2 type  2   force =    -0.00000000    0.00000000    0.00000000
     atom    3 type  2   force =     0.00000000    0.00000000   -0.00000000

     Total force =     0.000000     Total SCF correction =     0.000000


     Computing stress (Cartesian axis) and pressure

          total   stress  (Ry/bohr**3)                   (kbar)     P=       -6.39
  -0.00007103  -0.00000000   0.00000000          -10.45       -0.00        0.00
  -0.00000000  -0.00007103   0.00000000           -0.00      -10.45        0.00
   0.00000000   0.00000000   0.00001166            0.00        0.00        1.72


     Writing all to output data dir ./tmp/MgB2.save/ :
     XML data file, charge density, pseudopotentials, collected wavefunctions

     init_run     :      0.75s CPU      0.79s WALL (       1 calls)
     electrons    :      8.40s CPU      8.75s WALL (       1 calls)
     forces       :      0.19s CPU      0.20s WALL (       1 calls)
     stress       :      0.74s CPU      0.76s WALL (       1 calls)

     Called by init_run:
     wfcinit      :      0.60s CPU      0.63s WALL (       1 calls)
     potinit      :      0.05s CPU      0.06s WALL (       1 calls)
     hinit0       :      0.08s CPU      0.08s WALL (       1 calls)

     Called by electrons:
     c_bands      :      7.36s CPU      7.67s WALL (       5 calls)
     sum_band     :      0.96s CPU      1.00s WALL (       5 calls)
     v_of_rho     :      0.08s CPU      0.08s WALL (       6 calls)
     mix_rho      :      0.01s CPU      0.01s WALL (       5 calls)

     Called by c_bands:
     init_us_2    :      0.21s CPU      0.23s WALL (     650 calls)
     cegterg      :      7.16s CPU      7.44s WALL (     250 calls)

     Called by *egterg:
     cdiaghg      :      0.10s CPU      0.11s WALL (    1132 calls)
     h_psi        :      5.90s CPU      6.16s WALL (    1182 calls)
     g_psi        :      0.04s CPU      0.04s WALL (     882 calls)

     Called by h_psi:
     h_psi:calbec :      0.50s CPU      0.52s WALL (    1182 calls)
     vloc_psi     :      4.89s CPU      5.12s WALL (    1182 calls)
                                        0.00s GPU  (    1182 calls)
     add_vuspsi   :      0.46s CPU      0.47s WALL (    1182 calls)

     General routines
     calbec       :      1.09s CPU      1.12s WALL (    2032 calls)
     fft          :      0.03s CPU      0.04s WALL (      84 calls)
     ffts         :      0.00s CPU      0.00s WALL (       5 calls)
     fftw         :      4.99s CPU      5.23s WALL (   20394 calls)


     PWSCF        :     10.11s CPU     10.56s WALL


   This run was terminated on:  19:25:44  10Jan2026            

=------------------------------------------------------------------------------=
   JOB DONE.
=------------------------------------------------------------------------------=
