 CRYSTAL
 PRIMVEC
    3.829979814    0.000000000    0.000000000
   -1.914989907    3.316859815    0.000000000
    0.000000000    0.000000000    6.329966637
 PRIMCOORD
           4           1
Si       -0.000000000    2.211239876    0.398851198
Si        1.914989907    1.105619938    3.563834516
Si        1.914989907    1.105619938   -0.398851198
Si       -0.000000000    2.211239876    2.766132121
BEGIN_BLOCK_DATAGRID_3D
3D_PWSCF
DATAGRID_3D_UNKNOWN
          32          32          32
  0.000000  0.000000  0.000000
  3.829980  0.000000  0.000000
 -1.914990  3.316860  0.000000
  0.000000  0.000000  6.329967
  0.548990E-02  0.569633E-02  0.634237E-02  0.749910E-02  0.926695E-02  0.117828E-01
  0.152264E-01  0.197862E-01  0.256240E-01  0.328442E-01  0.414067E-01  0.510143E-01
  0.610544E-01  0.706193E-01  0.786129E-01  0.839517E-01  0.858306E-01  0.839517E-01
  0.786129E-01  0.706193E-01  0.610544E-01  0.510143E-01  0.414067E-01  0.328442E-01
  0.256240E-01  0.197862E-01  0.152264E-01  0.117828E-01  0.926695E-02  0.749910E-02
  0.634237E-02  0.569633E-02  0.569633E-02  0.569633E-02  0.612279E-02  0.702465E-02
  0.848637E-02  0.106267E-01  0.136034E-01  0.175987E-01  0.227942E-01  0.293346E-01
  0.372521E-01  0.463750E-01  0.562582E-01  0.661491E-01  0.750313E-01  0.817860E-01
  0.854445E-01  0.854445E-01  0.817860E-01  0.750313E-01  0.661491E-01  0.562582E-01
  0.463750E-01  0.372521E-01  0.293346E-01  0.227942E-01  0.175987E-01  0.136034E-01
  0.106267E-01  0.848637E-02  0.702465E-02  0.612279E-02  0.634237E-02  0.612279E-02
  0.634237E-02  0.702465E-02  0.823126E-02  0.100626E-01  0.126584E-01  0.161787E-01
  0.208018E-01  0.267016E-01  0.339583E-01  0.424812E-01  0.519632E-01  0.618124E-01
  0.711365E-01  0.788685E-01  0.839952E-01  0.857917E-01  0.839952E-01  0.788685E-01
  0.711365E-01  0.618124E-01  0.519632E-01  0.424812E-01  0.339583E-01  0.267016E-01
  0.208018E-01  0.161787E-01  0.126584E-01  0.100626E-01  0.823126E-02  0.702465E-02
  0.749910E-02  0.702465E-02  0.702465E-02  0.749910E-02  0.848637E-02  0.100626E-01
  0.123456E-01  0.154776E-01  0.196205E-01  0.249437E-01  0.315466E-01  0.393964E-01
  0.482813E-01  0.577147E-01  0.669120E-01  0.749351E-01  0.808867E-01  0.840604E-01
  0.840604E-01  0.808867E-01  0.749351E-01  0.669120E-01  0.577147E-01  0.482813E-01
  0.393964E-01  0.315466E-01  0.249437E-01  0.196205E-01  0.154776E-01  0.123456E-01
  0.100626E-01  0.848637E-02  0.926695E-02  0.848637E-02  0.823126E-02  0.848637E-02
  0.926695E-02  0.106267E-01  0.126584E-01  0.154776E-01  0.192277E-01  0.240635E-01
  0.300723E-01  0.372330E-01  0.453717E-01  0.540309E-01  0.624782E-01  0.699371E-01
  0.757678E-01  0.794865E-01  0.807661E-01  0.794865E-01  0.757678E-01  0.699371E-01
  0.624782E-01  0.540309E-01  0.453717E-01  0.372330E-01  0.300723E-01  0.240635E-01
  0.192277E-01  0.154776E-01  0.126584E-01  0.106267E-01  0.117828E-01  0.106267E-01
  0.100626E-01  0.100626E-01  0.106267E-01  0.117828E-01  0.136034E-01  0.161787E-01
  0.196205E-01  0.240635E-01  0.295753E-01  0.361142E-01  0.434822E-01  0.511608E-01
  0.583667E-01  0.644351E-01  0.690496E-01  0.721355E-01  0.736837E-01  0.736837E-01
  0.721355E-01  0.690496E-01  0.644351E-01  0.583667E-01  0.511608E-01  0.434822E-01
  0.361142E-01  0.295753E-01  0.240635E-01  0.196205E-01  0.161787E-01  0.136034E-01
  0.152264E-01  0.136034E-01  0.126584E-01  0.123456E-01  0.126584E-01  0.136034E-01
  0.152264E-01  0.175987E-01  0.208018E-01  0.249437E-01  0.300723E-01  0.361142E-01
  0.428234E-01  0.495681E-01  0.553973E-01  0.595995E-01  0.620855E-01  0.632674E-01
  0.637059E-01  0.638068E-01  0.637059E-01  0.632674E-01  0.620855E-01  0.595995E-01
  0.553973E-01  0.495681E-01  0.428234E-01  0.361142E-01  0.300723E-01  0.249437E-01
  0.208018E-01  0.175987E-01  0.197862E-01  0.175987E-01  0.161787E-01  0.154776E-01
  0.154776E-01  0.161787E-01  0.175987E-01  0.197862E-01  0.227942E-01  0.267016E-01
  0.315466E-01  0.372330E-01  0.434822E-01  0.495681E-01  0.543046E-01  0.567353E-01
  0.567580E-01  0.551423E-01  0.531302E-01  0.518342E-01  0.518342E-01  0.531302E-01
  0.551423E-01  0.567580E-01  0.567353E-01  0.543046E-01  0.495681E-01  0.434822E-01
  0.372330E-01  0.315466E-01  0.267016E-01  0.227942E-01  0.256240E-01  0.227942E-01
  0.208018E-01  0.196205E-01  0.192277E-01  0.196205E-01  0.208018E-01  0.227942E-01
  0.256240E-01  0.293346E-01  0.339583E-01  0.393964E-01  0.453717E-01  0.511608E-01
  0.553973E-01  0.567353E-01  0.547504E-01  0.502512E-01  0.450207E-01  0.410153E-01
  0.395408E-01  0.410153E-01  0.450207E-01  0.502512E-01  0.547504E-01  0.567353E-01
  0.553973E-01  0.511608E-01  0.453717E-01  0.393964E-01  0.339583E-01  0.293346E-01
  0.328442E-01  0.293346E-01  0.267016E-01  0.249437E-01  0.240635E-01  0.240635E-01
  0.249437E-01  0.267016E-01  0.293346E-01  0.328442E-01  0.372521E-01  0.424812E-01
  0.482813E-01  0.540309E-01  0.583667E-01  0.595995E-01  0.567580E-01  0.502512E-01
  0.419808E-01  0.346198E-01  0.303843E-01  0.303843E-01  0.346198E-01  0.419808E-01
  0.502512E-01  0.567580E-01  0.595995E-01  0.583667E-01  0.540309E-01  0.482813E-01
  0.424812E-01  0.372521E-01  0.414067E-01  0.372521E-01  0.339583E-01  0.315466E-01
  0.300723E-01  0.295753E-01  0.300723E-01  0.315466E-01  0.339583E-01  0.372521E-01
  0.414067E-01  0.463750E-01  0.519632E-01  0.577147E-01  0.624782E-01  0.644351E-01
  0.620855E-01  0.551423E-01  0.450207E-01  0.346198E-01  0.270162E-01  0.242560E-01
  0.270162E-01  0.346198E-01  0.450207E-01  0.551423E-01  0.620855E-01  0.644351E-01
  0.624782E-01  0.577147E-01  0.519632E-01  0.463750E-01  0.510143E-01  0.463750E-01
  0.424812E-01  0.393964E-01  0.372330E-01  0.361142E-01  0.361142E-01  0.372330E-01
  0.393964E-01  0.424812E-01  0.463750E-01  0.510143E-01  0.562582E-01  0.618124E-01
  0.669120E-01  0.699371E-01  0.690496E-01  0.632674E-01  0.531302E-01  0.410153E-01
  0.303843E-01  0.242560E-01  0.242560E-01  0.303843E-01  0.410153E-01  0.531302E-01
  0.632674E-01  0.690496E-01  0.699371E-01  0.669120E-01  0.618124E-01  0.562582E-01
  0.610544E-01  0.562582E-01  0.519632E-01  0.482813E-01  0.453717E-01  0.434822E-01
  0.428234E-01  0.434822E-01  0.453717E-01  0.482813E-01  0.519632E-01  0.562582E-01
  0.610544E-01  0.661491E-01  0.711365E-01  0.749351E-01  0.757678E-01  0.721355E-01
  0.637059E-01  0.518342E-01  0.395408E-01  0.303843E-01  0.270162E-01  0.303843E-01
  0.395408E-01  0.518342E-01  0.637059E-01  0.721355E-01  0.757678E-01  0.749351E-01
  0.711365E-01  0.661491E-01  0.706193E-01  0.661491E-01  0.618124E-01  0.577147E-01
  0.540309E-01  0.511608E-01  0.495681E-01  0.495681E-01  0.511608E-01  0.540309E-01
  0.577147E-01  0.618124E-01  0.661491E-01  0.706193E-01  0.750313E-01  0.788685E-01
  0.808867E-01  0.794865E-01  0.736837E-01  0.638068E-01  0.518342E-01  0.410153E-01
  0.346198E-01  0.346198E-01  0.410153E-01  0.518342E-01  0.638068E-01  0.736837E-01
  0.794865E-01  0.808867E-01  0.788685E-01  0.750313E-01  0.786129E-01  0.750313E-01
  0.711365E-01  0.669120E-01  0.624782E-01  0.583667E-01  0.553973E-01  0.543046E-01
  0.553973E-01  0.583667E-01  0.624782E-01  0.669120E-01  0.711365E-01  0.750313E-01
  0.786129E-01  0.817860E-01  0.839952E-01  0.840604E-01  0.807661E-01  0.736837E-01
  0.637059E-01  0.531302E-01  0.450207E-01  0.419808E-01  0.450207E-01  0.531302E-01
  0.637059E-01  0.736837E-01  0.807661E-01  0.840604E-01  0.839952E-01  0.817860E-01
  0.839517E-01  0.817860E-01  0.788685E-01  0.749351E-01  0.699371E-01  0.644351E-01
  0.595995E-01  0.567353E-01  0.567353E-01  0.595995E-01  0.644351E-01  0.699371E-01
  0.749351E-01  0.788685E-01  0.817860E-01  0.839517E-01  0.854445E-01  0.857917E-01
  0.840604E-01  0.794865E-01  0.721355E-01  0.632674E-01  0.551423E-01  0.502512E-01
  0.502512E-01  0.551423E-01  0.632674E-01  0.721355E-01  0.794865E-01  0.840604E-01
  0.857917E-01  0.854445E-01  0.858306E-01  0.854445E-01  0.839952E-01  0.808867E-01
  0.757678E-01  0.690496E-01  0.620855E-01  0.567580E-01  0.547504E-01  0.567580E-01
  0.620855E-01  0.690496E-01  0.757678E-01  0.808867E-01  0.839952E-01  0.854445E-01
  0.858306E-01  0.854445E-01  0.839952E-01  0.808867E-01  0.757678E-01  0.690496E-01
  0.620855E-01  0.567580E-01  0.547504E-01  0.567580E-01  0.620855E-01  0.690496E-01
  0.757678E-01  0.808867E-01  0.839952E-01  0.854445E-01  0.839517E-01  0.854445E-01
  0.857917E-01  0.840604E-01  0.794865E-01  0.721355E-01  0.632674E-01  0.551423E-01
  0.502512E-01  0.502512E-01  0.551423E-01  0.632674E-01  0.721355E-01  0.794865E-01
  0.840604E-01  0.857917E-01  0.854445E-01  0.839517E-01  0.817860E-01  0.788685E-01
  0.749351E-01  0.699371E-01  0.644351E-01  0.595995E-01  0.567353E-01  0.567353E-01
  0.595995E-01  0.644351E-01  0.699371E-01  0.749351E-01  0.788685E-01  0.817860E-01
  0.786129E-01  0.817860E-01  0.839952E-01  0.840604E-01  0.807661E-01  0.736837E-01
  0.637059E-01  0.531302E-01  0.450207E-01  0.419808E-01  0.450207E-01  0.531302E-01
  0.637059E-01  0.736837E-01  0.807661E-01  0.840604E-01  0.839952E-01  0.817860E-01
  0.786129E-01  0.750313E-01  0.711365E-01  0.669120E-01  0.624782E-01  0.583667E-01
  0.553973E-01  0.543046E-01  0.553973E-01  0.583667E-01  0.624782E-01  0.669120E-01
  0.711365E-01  0.750313E-01  0.706193E-01  0.750313E-01  0.788685E-01  0.808867E-01
  0.794865E-01  0.736837E-01  0.638068E-01  0.518342E-01  0.410153E-01  0.346198E-01
  0.346198E-01  0.410153E-01  0.518342E-01  0.638068E-01  0.736837E-01  0.794865E-01
  0.808867E-01  0.788685E-01  0.750313E-01  0.706193E-01  0.661491E-01  0.618124E-01
  0.577147E-01  0.540309E-01  0.511608E-01  0.495681E-01  0.495681E-01  0.511608E-01
  0.540309E-01  0.577147E-01  0.618124E-01  0.661491E-01  0.610544E-01  0.661491E-01
  0.711365E-01  0.749351E-01  0.757678E-01  0.721355E-01  0.637059E-01  0.518342E-01
  0.395408E-01  0.303843E-01  0.270162E-01  0.303843E-01  0.395408E-01  0.518342E-01
  0.637059E-01  0.721355E-01  0.757678E-01  0.749351E-01  0.711365E-01  0.661491E-01
  0.610544E-01  0.562582E-01  0.519632E-01  0.482813E-01  0.453717E-01  0.434822E-01
  0.428234E-01  0.434822E-01  0.453717E-01  0.482813E-01  0.519632E-01  0.562582E-01
  0.510143E-01  0.562582E-01  0.618124E-01  0.669120E-01  0.699371E-01  0.690496E-01
  0.632674E-01  0.531302E-01  0.410153E-01  0.303843E-01  0.242560E-01  0.242560E-01
  0.303843E-01  0.410153E-01  0.531302E-01  0.632674E-01  0.690496E-01  0.699371E-01
  0.669120E-01  0.618124E-01  0.562582E-01  0.510143E-01  0.463750E-01  0.424812E-01
  0.393964E-01  0.372330E-01  0.361142E-01  0.361142E-01  0.372330E-01  0.393964E-01
  0.424812E-01  0.463750E-01  0.414067E-01  0.463750E-01  0.519632E-01  0.577147E-01
  0.624782E-01  0.644351E-01  0.620855E-01  0.551423E-01  0.450207E-01  0.346198E-01
  0.270162E-01  0.242560E-01  0.270162E-01  0.346198E-01  0.450207E-01  0.551423E-01
  0.620855E-01  0.644351E-01  0.624782E-01  0.577147E-01  0.519632E-01  0.463750E-01
  0.414067E-01  0.372521E-01  0.339583E-01  0.315466E-01  0.300723E-01  0.295753E-01
  0.300723E-01  0.315466E-01  0.339583E-01  0.372521E-01  0.328442E-01  0.372521E-01
  0.424812E-01  0.482813E-01  0.540309E-01  0.583667E-01  0.595995E-01  0.567580E-01
  0.502512E-01  0.419808E-01  0.346198E-01  0.303843E-01  0.303843E-01  0.346198E-01
  0.419808E-01  0.502512E-01  0.567580E-01  0.595995E-01  0.583667E-01  0.540309E-01
  0.482813E-01  0.424812E-01  0.372521E-01  0.328442E-01  0.293346E-01  0.267016E-01
  0.249437E-01  0.240635E-01  0.240635E-01  0.249437E-01  0.267016E-01  0.293346E-01
  0.256240E-01  0.293346E-01  0.339583E-01  0.393964E-01  0.453717E-01  0.511608E-01
  0.553973E-01  0.567353E-01  0.547504E-01  0.502512E-01  0.450207E-01  0.410153E-01
  0.395408E-01  0.410153E-01  0.450207E-01  0.502512E-01  0.547504E-01  0.567353E-01
  0.553973E-01  0.511608E-01  0.453717E-01  0.393964E-01  0.339583E-01  0.293346E-01
  0.256240E-01  0.227942E-01  0.208018E-01  0.196205E-01  0.192277E-01  0.196205E-01
  0.208018E-01  0.227942E-01  0.197862E-01  0.227942E-01  0.267016E-01  0.315466E-01
  0.372330E-01  0.434822E-01  0.495681E-01  0.543046E-01  0.567353E-01  0.567580E-01
  0.551423E-01  0.531302E-01  0.518342E-01  0.518342E-01  0.531302E-01  0.551423E-01
  0.567580E-01  0.567353E-01  0.543046E-01  0.495681E-01  0.434822E-01  0.372330E-01
  0.315466E-01  0.267016E-01  0.227942E-01  0.197862E-01  0.175987E-01  0.161787E-01
  0.154776E-01  0.154776E-01  0.161787E-01  0.175987E-01  0.152264E-01  0.175987E-01
  0.208018E-01  0.249437E-01  0.300723E-01  0.361142E-01  0.428234E-01  0.495681E-01
  0.553973E-01  0.595995E-01  0.620855E-01  0.632674E-01  0.637059E-01  0.638068E-01
  0.637059E-01  0.632674E-01  0.620855E-01  0.595995E-01  0.553973E-01  0.495681E-01
  0.428234E-01  0.361142E-01  0.300723E-01  0.249437E-01  0.208018E-01  0.175987E-01
  0.152264E-01  0.136034E-01  0.126584E-01  0.123456E-01  0.126584E-01  0.136034E-01
  0.117828E-01  0.136034E-01  0.161787E-01  0.196205E-01  0.240635E-01  0.295753E-01
  0.361142E-01  0.434822E-01  0.511608E-01  0.583667E-01  0.644351E-01  0.690496E-01
  0.721355E-01  0.736837E-01  0.736837E-01  0.721355E-01  0.690496E-01  0.644351E-01
  0.583667E-01  0.511608E-01  0.434822E-01  0.361142E-01  0.295753E-01  0.240635E-01
  0.196205E-01  0.161787E-01  0.136034E-01  0.117828E-01  0.106267E-01  0.100626E-01
  0.100626E-01  0.106267E-01  0.926695E-02  0.106267E-01  0.126584E-01  0.154776E-01
  0.192277E-01  0.240635E-01  0.300723E-01  0.372330E-01  0.453717E-01  0.540309E-01
  0.624782E-01  0.699371E-01  0.757678E-01  0.794865E-01  0.807661E-01  0.794865E-01
  0.757678E-01  0.699371E-01  0.624782E-01  0.540309E-01  0.453717E-01  0.372330E-01
  0.300723E-01  0.240635E-01  0.192277E-01  0.154776E-01  0.126584E-01  0.106267E-01
  0.926695E-02  0.848637E-02  0.823126E-02  0.848637E-02  0.749910E-02  0.848637E-02
  0.100626E-01  0.123456E-01  0.154776E-01  0.196205E-01  0.249437E-01  0.315466E-01
  0.393964E-01  0.482813E-01  0.577147E-01  0.669120E-01  0.749351E-01  0.808867E-01
  0.840604E-01  0.840604E-01  0.808867E-01  0.749351E-01  0.669120E-01  0.577147E-01
  0.482813E-01  0.393964E-01  0.315466E-01  0.249437E-01  0.196205E-01  0.154776E-01
  0.123456E-01  0.100626E-01  0.848637E-02  0.749910E-02  0.702465E-02  0.702465E-02
  0.634237E-02  0.702465E-02  0.823126E-02  0.100626E-01  0.126584E-01  0.161787E-01
  0.208018E-01  0.267016E-01  0.339583E-01  0.424812E-01  0.519632E-01  0.618124E-01
  0.711365E-01  0.788685E-01  0.839952E-01  0.857917E-01  0.839952E-01  0.788685E-01
  0.711365E-01  0.618124E-01  0.519632E-01  0.424812E-01  0.339583E-01  0.267016E-01
  0.208018E-01  0.161787E-01  0.126584E-01  0.100626E-01  0.823126E-02  0.702465E-02
  0.634237E-02  0.612279E-02  0.569633E-02  0.612279E-02  0.702465E-02  0.848637E-02
  0.106267E-01  0.136034E-01  0.175987E-01  0.227942E-01  0.293346E-01  0.372521E-01
  0.463750E-01  0.562582E-01  0.661491E-01  0.750313E-01  0.817860E-01  0.854445E-01
  0.854445E-01  0.817860E-01  0.750313E-01  0.661491E-01  0.562582E-01  0.463750E-01
  0.372521E-01  0.293346E-01  0.227942E-01  0.175987E-01  0.136034E-01  0.106267E-01
  0.848637E-02  0.702465E-02  0.612279E-02  0.569633E-02  0.533399E-02  0.553339E-02
  0.615635E-02  0.726984E-02  0.897036E-02  0.113876E-01  0.146882E-01  0.190486E-01
  0.246222E-01  0.314995E-01  0.396285E-01  0.487226E-01  0.582071E-01  0.672293E-01
  0.747589E-01  0.797816E-01  0.815479E-01  0.797816E-01  0.747589E-01  0.672293E-01
  0.582071E-01  0.487226E-01  0.396285E-01  0.314995E-01  0.246222E-01  0.190486E-01
  0.146882E-01  0.113876E-01  0.897036E-02  0.726984E-02  0.615635E-02  0.553339E-02
  0.553339E-02  0.553339E-02  0.593673E-02  0.678775E-02  0.816605E-02  0.101771E-01
  0.129635E-01  0.166965E-01  0.215349E-01  0.275956E-01  0.349088E-01  0.433235E-01
  0.524211E-01  0.614991E-01  0.696311E-01  0.758078E-01  0.791523E-01  0.791523E-01
  0.758078E-01  0.696311E-01  0.614991E-01  0.524211E-01  0.433235E-01  0.349088E-01
  0.275956E-01  0.215349E-01  0.166965E-01  0.129635E-01  0.101771E-01  0.816605E-02
  0.678775E-02  0.593673E-02  0.615635E-02  0.595278E-02  0.615635E-02  0.678775E-02
  0.790302E-02  0.958893E-02  0.119659E-01  0.151798E-01  0.193845E-01  0.247201E-01
  0.312600E-01  0.389305E-01  0.474479E-01  0.562811E-01  0.646501E-01  0.716121E-01
  0.762442E-01  0.778708E-01  0.762442E-01  0.716121E-01  0.646501E-01  0.562811E-01
  0.474479E-01  0.389305E-01  0.312600E-01  0.247201E-01  0.193845E-01  0.151798E-01
  0.119659E-01  0.958893E-02  0.790302E-02  0.678775E-02  0.726984E-02  0.683913E-02
  0.683913E-02  0.726984E-02  0.816605E-02  0.958893E-02  0.116379E-01  0.144383E-01
  0.181211E-01  0.228250E-01  0.286519E-01  0.355792E-01  0.434145E-01  0.517642E-01
  0.599961E-01  0.672821E-01  0.727528E-01  0.756903E-01  0.756903E-01  0.727528E-01
  0.672821E-01  0.599961E-01  0.517642E-01  0.434145E-01  0.355792E-01  0.286519E-01
  0.228250E-01  0.181211E-01  0.144383E-01  0.116379E-01  0.958893E-02  0.816605E-02
  0.897036E-02  0.827413E-02  0.804748E-02  0.827413E-02  0.897036E-02  0.101771E-01
  0.119659E-01  0.144383E-01  0.177055E-01  0.218887E-01  0.270858E-01  0.332973E-01
  0.403921E-01  0.480686E-01  0.557978E-01  0.628706E-01  0.685537E-01  0.722340E-01
  0.735078E-01  0.722340E-01  0.685537E-01  0.628706E-01  0.557978E-01  0.480686E-01
  0.403921E-01  0.332973E-01  0.270858E-01  0.218887E-01  0.177055E-01  0.144383E-01
  0.119659E-01  0.101771E-01  0.113876E-01  0.103781E-01  0.988432E-02  0.988432E-02
  0.103781E-01  0.113876E-01  0.129635E-01  0.151798E-01  0.181211E-01  0.218887E-01
  0.265660E-01  0.321445E-01  0.385081E-01  0.453932E-01  0.523126E-01  0.586359E-01
  0.638011E-01  0.674266E-01  0.692910E-01  0.692910E-01  0.674266E-01  0.638011E-01
  0.586359E-01  0.523126E-01  0.453932E-01  0.385081E-01  0.321445E-01  0.265660E-01
  0.218887E-01  0.181211E-01  0.151798E-01  0.129635E-01  0.146882E-01  0.133041E-01
  0.124909E-01  0.122209E-01  0.124909E-01  0.133041E-01  0.146882E-01  0.166965E-01
  0.193845E-01  0.228250E-01  0.270858E-01  0.321445E-01  0.378692E-01  0.439812E-01
  0.499648E-01  0.551867E-01  0.592033E-01  0.619089E-01  0.634258E-01  0.639102E-01
  0.634258E-01  0.619089E-01  0.592033E-01  0.551867E-01  0.499648E-01  0.439812E-01
  0.378692E-01  0.321445E-01  0.270858E-01  0.228250E-01  0.193845E-01  0.166965E-01
  0.190486E-01  0.172226E-01  0.160266E-01  0.154297E-01  0.154297E-01  0.160266E-01
  0.172226E-01  0.190486E-01  0.215349E-01  0.247201E-01  0.286519E-01  0.332973E-01
  0.385081E-01  0.439812E-01  0.491313E-01  0.532235E-01  0.558050E-01  0.569590E-01
  0.571913E-01  0.571115E-01  0.571115E-01  0.571913E-01  0.569590E-01  0.558050E-01
  0.532235E-01  0.491313E-01  0.439812E-01  0.385081E-01  0.332973E-01  0.286519E-01
  0.247201E-01  0.215349E-01  0.246222E-01  0.223151E-01  0.206728E-01  0.196866E-01
  0.193544E-01  0.196866E-01  0.206728E-01  0.223151E-01  0.246222E-01  0.275956E-01
  0.312600E-01  0.355792E-01  0.403921E-01  0.453932E-01  0.499648E-01  0.532235E-01
  0.545410E-01  0.539972E-01  0.523649E-01  0.507481E-01  0.500875E-01  0.507481E-01
  0.523649E-01  0.539972E-01  0.545410E-01  0.532235E-01  0.499648E-01  0.453932E-01
  0.403921E-01  0.355792E-01  0.312600E-01  0.275956E-01  0.314995E-01  0.287250E-01
  0.265971E-01  0.251540E-01  0.244179E-01  0.244179E-01  0.251540E-01  0.265971E-01
  0.287250E-01  0.314995E-01  0.349088E-01  0.389305E-01  0.434145E-01  0.480686E-01
  0.523126E-01  0.551867E-01  0.558050E-01  0.539972E-01  0.505394E-01  0.468859E-01
  0.445726E-01  0.445726E-01  0.468859E-01  0.505394E-01  0.539972E-01  0.558050E-01
  0.551867E-01  0.523126E-01  0.480686E-01  0.434145E-01  0.389305E-01  0.349088E-01
  0.396285E-01  0.364647E-01  0.338631E-01  0.319044E-01  0.306784E-01  0.302562E-01
  0.306784E-01  0.319044E-01  0.338631E-01  0.364647E-01  0.396285E-01  0.433235E-01
  0.474479E-01  0.517642E-01  0.557978E-01  0.586359E-01  0.592033E-01  0.569590E-01
  0.523649E-01  0.468859E-01  0.424860E-01  0.408083E-01  0.424860E-01  0.468859E-01
  0.523649E-01  0.569590E-01  0.592033E-01  0.586359E-01  0.557978E-01  0.517642E-01
  0.474479E-01  0.433235E-01  0.487226E-01  0.453494E-01  0.423722E-01  0.398902E-01
  0.380819E-01  0.371147E-01  0.371147E-01  0.380819E-01  0.398902E-01  0.423722E-01
  0.453494E-01  0.487226E-01  0.524211E-01  0.562811E-01  0.599961E-01  0.628706E-01
  0.638011E-01  0.619089E-01  0.571913E-01  0.507481E-01  0.445726E-01  0.408083E-01
  0.408083E-01  0.445726E-01  0.507481E-01  0.571913E-01  0.619089E-01  0.638011E-01
  0.628706E-01  0.599961E-01  0.562811E-01  0.524211E-01  0.582071E-01  0.549480E-01
  0.518048E-01  0.488558E-01  0.463475E-01  0.446264E-01  0.440050E-01  0.446264E-01
  0.463475E-01  0.488558E-01  0.518048E-01  0.549480E-01  0.582071E-01  0.614991E-01
  0.646501E-01  0.672821E-01  0.685537E-01  0.674266E-01  0.634258E-01  0.571115E-01
  0.500875E-01  0.445726E-01  0.424860E-01  0.445726E-01  0.500875E-01  0.571115E-01
  0.634258E-01  0.674266E-01  0.685537E-01  0.672821E-01  0.646501E-01  0.614991E-01
  0.672293E-01  0.645327E-01  0.615349E-01  0.582153E-01  0.548299E-01  0.519685E-01
  0.503001E-01  0.503001E-01  0.519685E-01  0.548299E-01  0.582153E-01  0.615349E-01
  0.645327E-01  0.672293E-01  0.696311E-01  0.716121E-01  0.727528E-01  0.722340E-01
  0.692910E-01  0.639102E-01  0.571115E-01  0.507481E-01  0.468859E-01  0.468859E-01
  0.507481E-01  0.571115E-01  0.639102E-01  0.692910E-01  0.722340E-01  0.727528E-01
  0.716121E-01  0.696311E-01  0.747589E-01  0.731158E-01  0.706539E-01  0.671323E-01
  0.627190E-01  0.582207E-01  0.548012E-01  0.535137E-01  0.548012E-01  0.582207E-01
  0.627190E-01  0.671323E-01  0.706539E-01  0.731158E-01  0.747589E-01  0.758078E-01
  0.762442E-01  0.756903E-01  0.735078E-01  0.692910E-01  0.634258E-01  0.571913E-01
  0.523649E-01  0.505394E-01  0.523649E-01  0.571913E-01  0.634258E-01  0.692910E-01
  0.735078E-01  0.756903E-01  0.762442E-01  0.758078E-01  0.797816E-01  0.796224E-01
  0.781405E-01  0.747479E-01  0.693849E-01  0.629186E-01  0.569830E-01  0.533975E-01
  0.533975E-01  0.569830E-01  0.629186E-01  0.693849E-01  0.747479E-01  0.781405E-01
  0.796224E-01  0.797816E-01  0.791523E-01  0.778708E-01  0.756903E-01  0.722340E-01
  0.674266E-01  0.619089E-01  0.569590E-01  0.539972E-01  0.539972E-01  0.569590E-01
  0.619089E-01  0.674266E-01  0.722340E-01  0.756903E-01  0.778708E-01  0.791523E-01
  0.815479E-01  0.831377E-01  0.830688E-01  0.803191E-01  0.744419E-01  0.661180E-01
  0.572324E-01  0.503623E-01  0.477715E-01  0.503623E-01  0.572324E-01  0.661180E-01
  0.744419E-01  0.803191E-01  0.830688E-01  0.831377E-01  0.815479E-01  0.791523E-01
  0.762442E-01  0.727528E-01  0.685537E-01  0.638011E-01  0.592033E-01  0.558050E-01
  0.545410E-01  0.558050E-01  0.592033E-01  0.638011E-01  0.685537E-01  0.727528E-01
  0.762442E-01  0.791523E-01  0.797816E-01  0.831377E-01  0.847896E-01  0.832697E-01
  0.776193E-01  0.680906E-01  0.565114E-01  0.459768E-01  0.397073E-01  0.397073E-01
  0.459768E-01  0.565114E-01  0.680906E-01  0.776193E-01  0.832697E-01  0.847896E-01
  0.831377E-01  0.797816E-01  0.758078E-01  0.716121E-01  0.672821E-01  0.628706E-01
  0.586359E-01  0.551867E-01  0.532235E-01  0.532235E-01  0.551867E-01  0.586359E-01
  0.628706E-01  0.672821E-01  0.716121E-01  0.758078E-01  0.747589E-01  0.796224E-01
  0.830688E-01  0.832697E-01  0.787073E-01  0.690435E-01  0.557620E-01  0.421464E-01
  0.320378E-01  0.283210E-01  0.320378E-01  0.421464E-01  0.557620E-01  0.690435E-01
  0.787073E-01  0.832697E-01  0.830688E-01  0.796224E-01  0.747589E-01  0.696311E-01
  0.646501E-01  0.599961E-01  0.557978E-01  0.523126E-01  0.499648E-01  0.491313E-01
  0.499648E-01  0.523126E-01  0.557978E-01  0.599961E-01  0.646501E-01  0.696311E-01
  0.672293E-01  0.731158E-01  0.781405E-01  0.803191E-01  0.776193E-01  0.690435E-01
  0.554753E-01  0.400622E-01  0.269496E-01  0.195107E-01  0.195107E-01  0.269496E-01
  0.400622E-01  0.554753E-01  0.690435E-01  0.776193E-01  0.803191E-01  0.781405E-01
  0.731158E-01  0.672293E-01  0.614991E-01  0.562811E-01  0.517642E-01  0.480686E-01
  0.453932E-01  0.439812E-01  0.439812E-01  0.453932E-01  0.480686E-01  0.517642E-01
  0.562811E-01  0.614991E-01  0.582071E-01  0.645327E-01  0.706539E-01  0.747479E-01
  0.744419E-01  0.680906E-01  0.557620E-01  0.400622E-01  0.252277E-01  0.149395E-01
  0.113010E-01  0.149395E-01  0.252277E-01  0.400622E-01  0.557620E-01  0.680906E-01
  0.744419E-01  0.747479E-01  0.706539E-01  0.645327E-01  0.582071E-01  0.524211E-01
  0.474479E-01  0.434145E-01  0.403921E-01  0.385081E-01  0.378692E-01  0.385081E-01
  0.403921E-01  0.434145E-01  0.474479E-01  0.524211E-01  0.487226E-01  0.549480E-01
  0.615349E-01  0.671323E-01  0.693849E-01  0.661180E-01  0.565114E-01  0.421464E-01
  0.269496E-01  0.149395E-01  0.851102E-02  0.851102E-02  0.149395E-01  0.269496E-01
  0.421464E-01  0.565114E-01  0.661180E-01  0.693849E-01  0.671323E-01  0.615349E-01
  0.549480E-01  0.487226E-01  0.433235E-01  0.389305E-01  0.355792E-01  0.332973E-01
  0.321445E-01  0.321445E-01  0.332973E-01  0.355792E-01  0.389305E-01  0.433235E-01
  0.396285E-01  0.453494E-01  0.518048E-01  0.582153E-01  0.627190E-01  0.629186E-01
  0.572324E-01  0.459768E-01  0.320378E-01  0.195107E-01  0.113010E-01  0.851102E-02
  0.113010E-01  0.195107E-01  0.320378E-01  0.459768E-01  0.572324E-01  0.629186E-01
  0.627190E-01  0.582153E-01  0.518048E-01  0.453494E-01  0.396285E-01  0.349088E-01
  0.312600E-01  0.286519E-01  0.270858E-01  0.265660E-01  0.270858E-01  0.286519E-01
  0.312600E-01  0.349088E-01  0.314995E-01  0.364647E-01  0.423722E-01  0.488558E-01
  0.548299E-01  0.582207E-01  0.569830E-01  0.503623E-01  0.397073E-01  0.283210E-01
  0.195107E-01  0.149395E-01  0.149395E-01  0.195107E-01  0.283210E-01  0.397073E-01
  0.503623E-01  0.569830E-01  0.582207E-01  0.548299E-01  0.488558E-01  0.423722E-01
  0.364647E-01  0.314995E-01  0.275956E-01  0.247201E-01  0.228250E-01  0.218887E-01
  0.218887E-01  0.228250E-01  0.247201E-01  0.275956E-01  0.246222E-01  0.287250E-01
  0.338631E-01  0.398902E-01  0.463475E-01  0.519685E-01  0.548012E-01  0.533975E-01
  0.477715E-01  0.397073E-01  0.320378E-01  0.269496E-01  0.252277E-01  0.269496E-01
  0.320378E-01  0.397073E-01  0.477715E-01  0.533975E-01  0.548012E-01  0.519685E-01
  0.463475E-01  0.398902E-01  0.338631E-01  0.287250E-01  0.246222E-01  0.215349E-01
  0.193845E-01  0.181211E-01  0.177055E-01  0.181211E-01  0.193845E-01  0.215349E-01
  0.190486E-01  0.223151E-01  0.265971E-01  0.319044E-01  0.380819E-01  0.446264E-01
  0.503001E-01  0.535137E-01  0.533975E-01  0.503623E-01  0.459768E-01  0.421464E-01
  0.400622E-01  0.400622E-01  0.421464E-01  0.459768E-01  0.503623E-01  0.533975E-01
  0.535137E-01  0.503001E-01  0.446264E-01  0.380819E-01  0.319044E-01  0.265971E-01
  0.223151E-01  0.190486E-01  0.166965E-01  0.151798E-01  0.144383E-01  0.144383E-01
  0.151798E-01  0.166965E-01  0.146882E-01  0.172226E-01  0.206728E-01  0.251540E-01
  0.306784E-01  0.371147E-01  0.440050E-01  0.503001E-01  0.548012E-01  0.569830E-01
  0.572324E-01  0.565114E-01  0.557620E-01  0.554753E-01  0.557620E-01  0.565114E-01
  0.572324E-01  0.569830E-01  0.548012E-01  0.503001E-01  0.440050E-01  0.371147E-01
  0.306784E-01  0.251540E-01  0.206728E-01  0.172226E-01  0.146882E-01  0.129635E-01
  0.119659E-01  0.116379E-01  0.119659E-01  0.129635E-01  0.113876E-01  0.133041E-01
  0.160266E-01  0.196866E-01  0.244179E-01  0.302562E-01  0.371147E-01  0.446264E-01
  0.519685E-01  0.582207E-01  0.629186E-01  0.661180E-01  0.680906E-01  0.690435E-01
  0.690435E-01  0.680906E-01  0.661180E-01  0.629186E-01  0.582207E-01  0.519685E-01
  0.446264E-01  0.371147E-01  0.302562E-01  0.244179E-01  0.196866E-01  0.160266E-01
  0.133041E-01  0.113876E-01  0.101771E-01  0.958893E-02  0.958893E-02  0.101771E-01
  0.897036E-02  0.103781E-01  0.124909E-01  0.154297E-01  0.193544E-01  0.244179E-01
  0.306784E-01  0.380819E-01  0.463475E-01  0.548299E-01  0.627190E-01  0.693849E-01
  0.744419E-01  0.776193E-01  0.787073E-01  0.776193E-01  0.744419E-01  0.693849E-01
  0.627190E-01  0.548299E-01  0.463475E-01  0.380819E-01  0.306784E-01  0.244179E-01
  0.193544E-01  0.154297E-01  0.124909E-01  0.103781E-01  0.897036E-02  0.816605E-02
  0.790302E-02  0.816605E-02  0.726984E-02  0.827413E-02  0.988432E-02  0.122209E-01
  0.154297E-01  0.196866E-01  0.251540E-01  0.319044E-01  0.398902E-01  0.488558E-01
  0.582153E-01  0.671323E-01  0.747479E-01  0.803191E-01  0.832697E-01  0.832697E-01
  0.803191E-01  0.747479E-01  0.671323E-01  0.582153E-01  0.488558E-01  0.398902E-01
  0.319044E-01  0.251540E-01  0.196866E-01  0.154297E-01  0.122209E-01  0.988432E-02
  0.827413E-02  0.726984E-02  0.678775E-02  0.678775E-02  0.615635E-02  0.683913E-02
  0.804748E-02  0.988432E-02  0.124909E-01  0.160266E-01  0.206728E-01  0.265971E-01
  0.338631E-01  0.423722E-01  0.518048E-01  0.615349E-01  0.706539E-01  0.781405E-01
  0.830688E-01  0.847896E-01  0.830688E-01  0.781405E-01  0.706539E-01  0.615349E-01
  0.518048E-01  0.423722E-01  0.338631E-01  0.265971E-01  0.206728E-01  0.160266E-01
  0.124909E-01  0.988432E-02  0.804748E-02  0.683913E-02  0.615635E-02  0.593673E-02
  0.553339E-02  0.595278E-02  0.683913E-02  0.827413E-02  0.103781E-01  0.133041E-01
  0.172226E-01  0.223151E-01  0.287250E-01  0.364647E-01  0.453494E-01  0.549480E-01
  0.645327E-01  0.731158E-01  0.796224E-01  0.831377E-01  0.831377E-01  0.796224E-01
  0.731158E-01  0.645327E-01  0.549480E-01  0.453494E-01  0.364647E-01  0.287250E-01
  0.223151E-01  0.172226E-01  0.133041E-01  0.103781E-01  0.827413E-02  0.683913E-02
  0.595278E-02  0.553339E-02  0.490509E-02  0.508464E-02  0.564466E-02  0.664181E-02
  0.815968E-02  0.103108E-01  0.132310E-01  0.170616E-01  0.219292E-01  0.278995E-01
  0.349019E-01  0.426712E-01  0.507172E-01  0.583300E-01  0.646568E-01  0.688641E-01
  0.703410E-01  0.688641E-01  0.646568E-01  0.583300E-01  0.507172E-01  0.426712E-01