
     Program BANDS v.7.5 starts on  9Jan2026 at  1: 7:20 

     This program is part of the open-source Quantum ESPRESSO suite
     for quantum simulation of materials; please cite
         "P. Giannozzi et al., J. Phys.:Condens. Matter 21 395502 (2009);
         "P. Giannozzi et al., J. Phys.:Condens. Matter 29 465901 (2017);
         "P. Giannozzi et al., J. Chem. Phys. 152 154105 (2020);
          URL http://www.quantum-espresso.org", 
     in publications or presentations arising from this work. More details at
     http://www.quantum-espresso.org/quote

     Serial version
     2895 MiB available memory on the printing compute node when the environment starts


     Reading xml data from directory:

     ./tmp/si.cd.save/

     IMPORTANT: XC functional enforced from input :
     Exchange-correlation= PBE
                           (   1   4   3   4   0   0   0)
     Any further DFT definition will be discarded
     Please, verify this is what you really want


     G-vector sticks info
     --------------------
     sticks:   dense  smooth     PW     G-vecs:    dense   smooth      PW
     Sum        1165    1165    349                26565    26565    4111

     Using Slab Decomposition

     Reading collected, re-writing distributed wavefunctions
     high-symmetry point:  0.0000 0.0000 0.0000   x coordinate   0.0000
     high-symmetry point: -1.0000 0.0000 0.0000   x coordinate   1.0000
     high-symmetry point: -1.0000 0.5000 0.0000   x coordinate   1.5000
     high-symmetry point: -0.7500 0.7500 0.0000   x coordinate   1.8536
     high-symmetry point:  0.0000 0.0000 0.0000   x coordinate   2.9142
     high-symmetry point: -0.5000 0.5000 0.5000   x coordinate   3.7802
     high-symmetry point: -1.0000 0.2500 0.2500   x coordinate   4.3926
     high-symmetry point: -1.0000 0.5000 0.0000   x coordinate   4.7462
     high-symmetry point: -0.5000 0.5000 0.5000   x coordinate   5.4533
     high-symmetry point: -0.7500 0.7500 0.0000   x coordinate   6.0656
     high-symmetry point: -1.0000 0.2500 0.2500   x coordinate   6.0656
     high-symmetry point: -1.0000 0.0000 0.0000   x coordinate   6.4192

     Plottable bands (eV) written to file si.cd.bands.dat.gnu
     Bands written to file si.cd.bands.dat

 **************************************************************************

                    xk=(   0.00000,   0.00000,   0.00000  )

     point group O_h (m-3m) 
     there are 10 classes
     the character table:

       E     8C3   3C2   6C4   6C2'  i     8S6   3s_h  6S4   6s_d 
A_1g   1.00  1.00  1.00  1.00  1.00  1.00  1.00  1.00  1.00  1.00
A_2g   1.00  1.00  1.00 -1.00 -1.00  1.00  1.00  1.00 -1.00 -1.00
E_g    2.00 -1.00  2.00  0.00  0.00  2.00 -1.00  2.00  0.00  0.00
T_1g   3.00  0.00 -1.00  1.00 -1.00  3.00  0.00 -1.00  1.00 -1.00
T_2g   3.00  0.00 -1.00 -1.00  1.00  3.00  0.00 -1.00 -1.00  1.00
A_1u   1.00  1.00  1.00  1.00  1.00 -1.00 -1.00 -1.00 -1.00 -1.00
A_2u   1.00  1.00  1.00 -1.00 -1.00 -1.00 -1.00 -1.00  1.00  1.00
E_u    2.00 -1.00  2.00  0.00  0.00 -2.00  1.00 -2.00  0.00  0.00
T_1u   3.00  0.00 -1.00  1.00 -1.00 -3.00  0.00  1.00 -1.00  1.00
T_2u   3.00  0.00 -1.00 -1.00  1.00 -3.00  0.00  1.00  1.00 -1.00

     the symmetry operations in each class and the name of the first element:

     E        1
                                                                 
     8C3     17   19   20   18   24   21   22   23
                                                                 
     3C2      2    4    3
                                                                 
     6C4      7    8   15   16   12   11
                                                                 
     6C2'     5    6   14   13   10    9
                                                                 
     i       25
                                                                 
     8S6     41   43   44   42   48   45   46   47
                                                                 
     3s_h    26   28   27
                                                                 
     6S4     31   32   39   40   36   35
                                                                 
     6s_d    29   30   38   37   34   33
                                                                 

     Band symmetry, O_h (m-3m)  point group:

     e(  1 -  1) =     -5.81445  eV     1   --> A_1g G_1   G_1+
     e(  2 -  4) =      5.99480  eV     3   --> T_2g G_25' G_5+
     e(  5 -  7) =      8.54126  eV     3   --> T_1u G_15  G_4-
     e(  8 -  8) =      9.07718  eV     1   --> A_2u G_2'  G_2-
     e(  9 - 10) =     13.70931  eV     2   --> E_u  G_12' G_3-
     e( 11 - 11) =     13.86630  eV     1   --> A_1g G_1   G_1+
     e( 12 - 12) =     17.17201  eV     1   -->   ?

 **************************************************************************

 **************************************************************************

                    xk=(  -0.02500,   0.00000,   0.00000  )

     point group C_4v (4mm) 
     there are  5 classes
     the character table:

       E     2C4   C2    2s_v  2s_d 
A_1    1.00  1.00  1.00  1.00  1.00
A_2    1.00  1.00  1.00 -1.00 -1.00
B_1    1.00 -1.00  1.00  1.00 -1.00
B_2    1.00 -1.00  1.00 -1.00  1.00
E      2.00  0.00 -2.00  0.00  0.00

     the symmetry operations in each class and the name of the first element:

     E        1
                                                                 
     2C4      3    4
                                                                 
     C2       2
                                                                 
     2s_v     5    6
                                                                 
     2s_d     7    8
                                                                 

     Band symmetry, C_4v (4mm)  point group:

     e(  1 -  1) =     -5.81177  eV     1   --> A_1  G_1 D_1   
     e(  2 -  2) =      5.97490  eV     1   --> B_2  G_4 D_2'  
     e(  3 -  4) =      5.98318  eV     2   --> E    G_5 D_5   
     e(  5 -  5) =      8.53458  eV     1   --> A_1  G_1 D_1   
     e(  6 -  7) =      8.55618  eV     2   --> E    G_5 D_5   
     e(  8 -  8) =      9.09670  eV     1   --> B_2  G_4 D_2'  
     e(  9 -  9) =     13.68696  eV     1   --> B_2  G_4 D_2'  
     e( 10 - 10) =     13.71229  eV     1   --> A_2  G_2 D_1'  
     e( 11 - 11) =     13.87832  eV     1   --> A_1  G_1 D_1   
     e( 12 - 12) =     17.17670  eV     1   -->   ?

 **************************************************************************

 **************************************************************************

                    xk=(  -0.05000,   0.00000,   0.00000  )

     Band symmetry, C_4v (4mm)  point group:

     e(  1 -  1) =     -5.80372  eV     1   --> A_1  G_1 D_1   
     e(  2 -  2) =      5.91674  eV     1   --> B_2  G_4 D_2'  
     e(  3 -  4) =      5.94916  eV     2   --> E    G_5 D_5   
     e(  5 -  5) =      8.51476  eV     1   --> A_1  G_1 D_1   
     e(  6 -  7) =      8.60013  eV     2   --> E    G_5 D_5   
     e(  8 -  8) =      9.15358  eV     1   --> B_2  G_4 D_2'  
     e(  9 -  9) =     13.62187  eV     1   --> B_2  G_4 D_2'  
     e( 10 - 10) =     13.72124  eV     1   --> A_2  G_2 D_1'  
     e( 11 - 11) =     13.91415  eV     1   --> A_1  G_1 D_1   
     e( 12 - 12) =     17.19076  eV     1   -->   ?

 **************************************************************************

 **************************************************************************

                    xk=(  -0.07500,   0.00000,   0.00000  )

     Band symmetry, C_4v (4mm)  point group:

     e(  1 -  1) =     -5.79031  eV     1   --> A_1  G_1 D_1   
     e(  2 -  2) =      5.82438  eV     1   --> B_2  G_4 D_2'  
     e(  3 -  4) =      5.89499  eV     2   --> E    G_5 D_5   
     e(  5 -  5) =      8.48238  eV     1   --> A_1  G_1 D_1   
     e(  6 -  7) =      8.67083  eV     2   --> E    G_5 D_5   
     e(  8 -  8) =      9.24319  eV     1   --> B_2  G_4 D_2'  
     e(  9 -  9) =     13.51943  eV     1   --> B_2  G_4 D_2'  
     e( 10 - 10) =     13.73614  eV     1   --> A_2  G_2 D_1'  
     e( 11 - 11) =     13.97318  eV     1   --> A_1  G_1 D_1   
     e( 12 - 12) =     17.21419  eV     1   -->   ?

 **************************************************************************

 **************************************************************************

                    xk=(  -0.10000,   0.00000,   0.00000  )

     Band symmetry, C_4v (4mm)  point group:

     e(  1 -  1) =     -5.77154  eV     1   --> A_1  G_1 D_1   
     e(  2 -  2) =      5.70326  eV     1   --> B_2  G_4 D_2'  
     e(  3 -  4) =      5.82378  eV     2   --> E    G_5 D_5   
     e(  5 -  5) =      8.43837  eV     1   --> A_1  G_1 D_1   
     e(  6 -  7) =      8.76514  eV     2   --> E    G_5 D_5   
     e(  8 -  8) =      9.35916  eV     1   --> B_2  G_4 D_2'  
     e(  9 -  9) =     13.38723  eV     1   --> B_2  G_4 D_2'  
     e( 10 - 10) =     13.75700  eV     1   --> A_2  G_2 D_1'  
     e( 11 - 11) =     14.05445  eV     1   --> A_1  G_1 D_1   
     e( 12 - 12) =     17.24697  eV     1   -->   ?

 **************************************************************************

 **************************************************************************

                    xk=(  -0.12500,   0.00000,   0.00000  )

     Band symmetry, C_4v (4mm)  point group:

     e(  1 -  1) =     -5.74742  eV     1   --> A_1  G_1 D_1   
     e(  2 -  2) =      5.55894  eV     1   --> B_2  G_4 D_2'  
     e(  3 -  4) =      5.73891  eV     2   --> E    G_5 D_5   
     e(  5 -  5) =      8.38392  eV     1   --> A_1  G_1 D_1   
     e(  6 -  7) =      8.87967  eV     2   --> E    G_5 D_5   
     e(  8 -  8) =      9.49435  eV     1   --> B_2  G_4 D_2'  
     e(  9 -  9) =     13.23382  eV     1   --> B_2  G_4 D_2'  
     e( 10 - 10) =     13.78383  eV     1   --> A_2  G_2 D_1'  
     e( 11 - 11) =     14.15675  eV     1   --> A_1  G_1 D_1   
     e( 12 - 12) =     17.28906  eV     1   -->   ?

 **************************************************************************

 **************************************************************************

                    xk=(  -0.15000,   0.00000,   0.00000  )

     Band symmetry, C_4v (4mm)  point group:

     e(  1 -  1) =     -5.71797  eV     1   --> A_1  G_1 D_1   
     e(  2 -  2) =      5.39643  eV     1   --> B_2  G_4 D_2'  
     e(  3 -  4) =      5.64360  eV     2   --> E    G_5 D_5   
     e(  5 -  5) =      8.32035  eV     1   --> A_1  G_1 D_1   
     e(  6 -  7) =      9.01116  eV     2   --> E    G_5 D_5   
     e(  8 -  8) =      9.64138  eV     1   --> B_2  G_4 D_2'  
     e(  9 -  9) =     13.06808  eV     1   --> B_2  G_4 D_2'  
     e( 10 - 10) =     13.81661  eV     1   --> A_2  G_2 D_1'  
     e( 11 - 11) =     14.27867  eV     1   --> A_1  G_1 D_1   
     e( 12 - 12) =     17.34043  eV     1   -->   ?

 **************************************************************************

 **************************************************************************

                    xk=(  -0.17500,   0.00000,   0.00000  )

     Band symmetry, C_4v (4mm)  point group:

     e(  1 -  1) =     -5.68317  eV     1   --> A_1  G_1 D_1   
     e(  2 -  2) =      5.21986  eV     1   --> B_2  G_4 D_2'  
     e(  3 -  4) =      5.54065  eV     2   --> E    G_5 D_5   
     e(  5 -  5) =      8.24906  eV     1   --> A_1  G_1 D_1   
     e(  6 -  7) =      9.15676  eV     2   --> E    G_5 D_5   
     e(  8 -  8) =      9.79253  eV     1   --> B_2  G_4 D_2'  
     e(  9 -  9) =     12.89920  eV     1   --> B_2  G_4 D_2'  
     e( 10 - 10) =     13.85535  eV     1   --> A_2  G_2 D_1'  
     e( 11 - 11) =     14.41874  eV     1   --> A_1  G_1 D_1   
     e( 12 - 12) =     17.40102  eV     1   -->   ?

 **************************************************************************

 **************************************************************************

                    xk=(  -0.20000,   0.00000,   0.00000  )

     Band symmetry, C_4v (4mm)  point group:

     e(  1 -  1) =     -5.64306  eV     1   --> A_1  G_1 D_1   
     e(  2 -  2) =      5.03250  eV     1   --> B_2  G_4 D_2'  
     e(  3 -  4) =      5.43240  eV     2   --> E    G_5 D_5   
     e(  5 -  5) =      8.17148  eV     1   --> A_1  G_1 D_1   
     e(  6 -  7) =      9.31410  eV     2   --> E    G_5 D_5   
     e(  8 -  8) =      9.93918  eV     1   --> B_2  G_4 D_2'  
     e(  9 -  9) =     12.73711  eV     1   --> B_2  G_4 D_2'  
     e( 10 - 10) =     13.90004  eV     1   --> A_2  G_2 D_1'  
     e( 11 - 11) =     14.57544  eV     1   --> A_1  G_1 D_1   
     e( 12 - 12) =     17.47075  eV     1   -->   ?

 **************************************************************************

 **************************************************************************

                    xk=(  -0.22500,   0.00000,   0.00000  )

     Band symmetry, C_4v (4mm)  point group:

     e(  1 -  1) =     -5.59764  eV     1   --> A_1  G_1 D_1   
     e(  2 -  2) =      4.83686  eV     1   --> B_2  G_4 D_2'  
     e(  3 -  4) =      5.32075  eV     2   --> E    G_5 D_5   
     e(  5 -  5) =      8.08896  eV     1   --> A_1  G_1 D_1   
     e(  6 -  7) =      9.48122  eV     2   --> E    G_5 D_5   
     e(  8 -  8) =     10.07107  eV     1   --> B_2  G_4 D_2'  
     e(  9 -  9) =     12.59329  eV     1   --> B_2  G_4 D_2'  
     e( 10 - 10) =     13.95069  eV     1   --> A_2  G_2 D_1'  
     e( 11 - 11) =     14.74732  eV     1   --> A_1  G_1 D_1   
     e( 12 - 12) =     17.54950  eV     1   -->   ?

 **************************************************************************

 **************************************************************************

                    xk=(  -0.25000,   0.00000,   0.00000  )

     Band symmetry, C_4v (4mm)  point group:

     e(  1 -  1) =     -5.54694  eV     1   --> A_1  G_1 D_1   
     e(  2 -  2) =      4.63487  eV     1   --> B_2  G_4 D_2'  
     e(  3 -  4) =      5.20720  eV     2   --> E    G_5 D_5   
     e(  5 -  5) =      8.00276  eV     1   --> A_1  G_1 D_1   
     e(  6 -  7) =      9.65656  eV     2   --> E    G_5 D_5   
     e(  8 -  8) =     10.17573  eV     1   --> B_2  G_4 D_2'  
     e(  9 -  9) =     12.48118  eV     1   --> B_2  G_4 D_2'  
     e( 10 - 10) =     14.00728  eV     1   --> A_2  G_2 D_1'  
     e( 11 - 11) =     14.93294  eV     1   --> A_1  G_1 D_1   
     e( 12 - 12) =     17.63714  eV     1   -->   ?

 **************************************************************************

 **************************************************************************

                    xk=(  -0.27500,   0.00000,   0.00000  )

     Band symmetry, C_4v (4mm)  point group:

     e(  1 -  1) =     -5.49096  eV     1   --> A_1  G_1 D_1   
     e(  2 -  2) =      4.42797  eV     1   --> B_2  G_4 D_2'  
     e(  3 -  4) =      5.09296  eV     2   --> E    G_5 D_5   
     e(  5 -  5) =      7.91405  eV     1   --> A_1  G_1 D_1   
     e(  6 -  7) =      9.83886  eV     2   --> E    G_5 D_5   
     e(  8 -  8) =     10.23959  eV     1   --> B_2  G_4 D_2'  
     e(  9 -  9) =     12.41523  eV     1   --> B_2  G_4 D_2'  
     e( 10 - 10) =     14.06981  eV     1   --> A_2  G_2 D_1'  
     e( 11 - 11) =     15.13099  eV     1   --> A_1  G_1 D_1   
     e( 12 - 12) =     17.73347  eV     1   -->   ?

 **************************************************************************

 **************************************************************************

                    xk=(  -0.30000,   0.00000,   0.00000  )

     Band symmetry, C_4v (4mm)  point group:

     e(  1 -  1) =     -5.42973  eV     1   --> A_1  G_1 D_1   
     e(  2 -  2) =      4.21728  eV     1   --> B_2  G_4 D_2'  
     e(  3 -  4) =      4.97900  eV     2   --> E    G_5 D_5   
     e(  5 -  5) =      7.82388  eV     1   --> A_1  G_1 D_1   
     e(  6 -  7) =     10.02709  eV     2   --> E    G_5 D_5   
     e(  8 -  8) =     10.25172  eV     1   --> B_2  G_4 D_2'  
     e(  9 -  9) =     12.40709  eV     1   --> B_2  G_4 D_2'  
     e( 10 - 10) =     14.13829  eV     1   --> A_2  G_2 D_1'  
     e( 11 - 11) =     15.34021  eV     1   --> A_1  G_1 D_1   
     e( 12 - 12) =     17.83823  eV     1   -->   ?

 **************************************************************************

 **************************************************************************

                    xk=(  -0.32500,   0.00000,   0.00000  )

     Band symmetry, C_4v (4mm)  point group:

     e(  1 -  1) =     -5.36327  eV     1   --> A_1  G_1 D_1   
     e(  2 -  2) =      4.00366  eV     1   --> B_2  G_4 D_2'  
     e(  3 -  4) =      4.86607  eV     2   --> E    G_5 D_5   
     e(  5 -  5) =      7.73319  eV     1   --> A_1  G_1 D_1   
     e(  6 -  6) =     10.20904  eV     1   --> B_2  G_4 D_2'  
     e(  7 -  8) =     10.22043  eV     2   --> E    G_5 D_5   
     e(  9 -  9) =     12.46040  eV     1   --> B_2  G_4 D_2'  
     e( 10 - 10) =     14.21271  eV     1   --> A_2  G_2 D_1'  
     e( 11 - 11) =     15.55940  eV     1   --> A_1  G_1 D_1   
     e( 12 - 12) =     17.95108  eV     1   -->   ?

 **************************************************************************

 **************************************************************************

                    xk=(  -0.35000,   0.00000,   0.00000  )

     Band symmetry, C_4v (4mm)  point group:

     e(  1 -  1) =     -5.29161  eV     1   --> A_1  G_1 D_1   
     e(  2 -  2) =      3.78776  eV     1   --> B_2  G_4 D_2'  
     e(  3 -  4) =      4.75481  eV     2   --> E    G_5 D_5   
     e(  5 -  5) =      7.64280  eV     1   --> A_1  G_1 D_1   
     e(  6 -  6) =     10.11786  eV     1   --> B_2  G_4 D_2'  
     e(  7 -  8) =     10.41820  eV     2   --> E    G_5 D_5   
     e(  9 -  9) =     12.56931  eV     1   --> B_2  G_4 D_2'  
     e( 10 - 10) =     14.29305  eV     1   --> A_2  G_2 D_1'  
     e( 11 - 11) =     15.78744  eV     1   --> A_1  G_1 D_1   
     e( 12 - 12) =     18.07155  eV     1   -->   ?

 **************************************************************************

 **************************************************************************

                    xk=(  -0.37500,   0.00000,   0.00000  )

     Band symmetry, C_4v (4mm)  point group:

     e(  1 -  1) =     -5.21478  eV     1   --> A_1  G_1 D_1   
     e(  2 -  2) =      3.57010  eV     1   --> B_2  G_4 D_2'  
     e(  3 -  4) =      4.64571  eV     2   --> E    G_5 D_5   
     e(  5 -  5) =      7.55346  eV     1   --> A_1  G_1 D_1   
     e(  6 -  6) =      9.98982  eV     1   --> B_2  G_4 D_2'  
     e(  7 -  8) =     10.61985  eV     2   --> E    G_5 D_5   
     e(  9 -  9) =     12.72255  eV     1   --> B_2  G_4 D_2'  
     e( 10 - 10) =     14.37933  eV     1   --> A_2  G_2 D_1'  
     e( 11 - 11) =     16.02325  eV     1   --> A_1  G_1 D_1   
     e( 12 - 12) =     18.19903  eV     1   -->   ?

 **************************************************************************

 **************************************************************************

                    xk=(  -0.40000,   0.00000,   0.00000  )

     Band symmetry, C_4v (4mm)  point group:

     e(  1 -  1) =     -5.13279  eV     1   --> A_1  G_1 D_1   
     e(  2 -  2) =      3.35111  eV     1   --> B_2  G_4 D_2'  
     e(  3 -  4) =      4.53919  eV     2   --> E    G_5 D_5   
     e(  5 -  5) =      7.46581  eV     1   --> A_1  G_1 D_1   
     e(  6 -  6) =      9.83671  eV     1   --> B_2  G_4 D_2'  
     e(  7 -  8) =     10.82490  eV     2   --> E    G_5 D_5   
     e(  9 -  9) =     12.90860  eV     1   --> B_2  G_4 D_2'  
     e( 10 - 10) =     14.47152  eV     1   --> A_2  G_2 D_1'  
     e( 11 - 11) =     16.26572  eV     1   --> A_1  G_1 D_1   
     e( 12 - 12) =     18.33268  eV     1   -->   ?

 **************************************************************************

 **************************************************************************

                    xk=(  -0.42500,   0.00000,   0.00000  )

     Band symmetry, C_4v (4mm)  point group:

     e(  1 -  1) =     -5.04570  eV     1   --> A_1  G_1 D_1   
     e(  2 -  2) =      3.13111  eV     1   --> B_2  G_4 D_2'  
     e(  3 -  4) =      4.43559  eV     2   --> E    G_5 D_5   
     e(  5 -  5) =      7.38042  eV     1   --> A_1  G_1 D_1   
     e(  6 -  6) =      9.66800  eV     1   --> B_2  G_4 D_2'  
     e(  7 -  8) =     11.03297  eV     2   --> E    G_5 D_5   
     e(  9 -  9) =     13.11816  eV     1   --> B_2  G_4 D_2'  
     e( 10 - 10) =     14.56963  eV     1   --> A_2  G_2 D_1'  
     e( 11 - 11) =     16.51378  eV     1   --> A_1  G_1 D_1   
     e( 12 - 12) =     18.47137  eV     1   -->   ?

 **************************************************************************

 **************************************************************************

                    xk=(  -0.45000,   0.00000,   0.00000  )

     Band symmetry, C_4v (4mm)  point group:

     e(  1 -  1) =     -4.95352  eV     1   --> A_1  G_1 D_1   
     e(  2 -  2) =      2.91039  eV     1   --> B_2  G_4 D_2'  
     e(  3 -  4) =      4.33520  eV     2   --> E    G_5 D_5   
     e(  5 -  5) =      7.29779  eV     1   --> A_1  G_1 D_1   
     e(  6 -  6) =      9.49055  eV     1   --> B_2  G_4 D_2'  
     e(  7 -  8) =     11.24374  eV     2   --> E    G_5 D_5   
     e(  9 -  9) =     13.34448  eV     1   --> B_2  G_4 D_2'  
     e( 10 - 10) =     14.67365  eV     1   --> A_2  G_2 D_1'  
     e( 11 - 11) =     16.76626  eV     1   --> A_1  G_1 D_1   
     e( 12 - 12) =     18.61355  eV     1   -->   ?

 **************************************************************************

 **************************************************************************

                    xk=(  -0.47500,   0.00000,   0.00000  )

     Band symmetry, C_4v (4mm)  point group:

     e(  1 -  1) =     -4.85631  eV     1   --> A_1  G_1 D_1   
     e(  2 -  2) =      2.68919  eV     1   --> B_2  G_4 D_2'  
     e(  3 -  4) =      4.23825  eV     2   --> E    G_5 D_5   
     e(  5 -  5) =      7.21836  eV     1   --> A_1  G_1 D_1   
     e(  6 -  6) =      9.30913  eV     1   --> B_2  G_4 D_2'  
     e(  7 -  8) =     11.45694  eV     2   --> E    G_5 D_5   
     e(  9 -  9) =     13.58281  eV     1   --> B_2  G_4 D_2'  
     e( 10 - 10) =     14.78357  eV     1   --> A_2  G_2 D_1'  
     e( 11 - 11) =     17.02194  eV     1   --> A_1  G_1 D_1   
     e( 12 - 12) =     18.75707  eV     1   -->   ?

 **************************************************************************

 **************************************************************************

                    xk=(  -0.50000,   0.00000,   0.00000  )

     Band symmetry, C_4v (4mm)  point group:

     e(  1 -  1) =     -4.75409  eV     1   --> A_1  G_1 D_1   
     e(  2 -  2) =      2.46771  eV     1   --> B_2  G_4 D_2'  
     e(  3 -  4) =      4.14494  eV     2   --> E    G_5 D_5   
     e(  5 -  5) =      7.14254  eV     1   --> A_1  G_1 D_1   
     e(  6 -  6) =      9.12708  eV     1   --> B_2  G_4 D_2'  
     e(  7 -  8) =     11.67232  eV     2   --> E    G_5 D_5   
     e(  9 -  9) =     13.82980  eV     1   --> B_2  G_4 D_2'  
     e( 10 - 10) =     14.89939  eV     1   --> A_2  G_2 D_1'  
     e( 11 - 11) =     17.27944  eV     1   --> A_1  G_1 D_1   
     e( 12 - 12) =     18.89893  eV     1   -->   ?

 **************************************************************************

 **************************************************************************

                    xk=(  -0.52500,   0.00000,   0.00000  )

     Band symmetry, C_4v (4mm)  point group:

     e(  1 -  1) =     -4.64692  eV     1   --> A_1  G_1 D_1   
     e(  2 -  2) =      2.24615  eV     1   --> B_2  G_4 D_2'  
     e(  3 -  4) =      4.05546  eV     2   --> E    G_5 D_5   
     e(  5 -  5) =      7.07066  eV     1   --> A_1  G_1 D_1   
     e(  6 -  6) =      8.94673  eV     1   --> B_2  G_4 D_2'  
     e(  7 -  8) =     11.88971  eV     2   --> E    G_5 D_5   
     e(  9 -  9) =     14.08301  eV     1   --> B_2  G_4 D_2'  
     e( 10 - 10) =     15.02110  eV     1   --> A_2  G_2 D_1'  
     e( 11 - 11) =     17.53721  eV     1   --> A_1  G_1 D_1   
     e( 12 - 12) =     19.03491  eV     1   -->   ?

 **************************************************************************

 **************************************************************************

                    xk=(  -0.55000,   0.00000,   0.00000  )

     Band symmetry, C_4v (4mm)  point group:

     e(  1 -  1) =     -4.53483  eV     1   --> A_1  G_1 D_1   
     e(  2 -  2) =      2.02468  eV     1   --> B_2  G_4 D_2'  
     e(  3 -  4) =      3.96994  eV     2   --> E    G_5 D_5   
     e(  5 -  5) =      7.00303  eV     1   --> A_1  G_1 D_1   
     e(  6 -  6) =      8.76976  eV     1   --> B_2  G_4 D_2'  
     e(  7 -  8) =     12.10893  eV     2   --> E    G_5 D_5   
     e(  9 -  9) =     14.34064  eV     1   --> B_2  G_4 D_2'  
     e( 10 - 10) =     15.14868  eV     1   --> A_2  G_2 D_1'  
     e( 11 - 11) =     17.79344  eV     1   --> A_1  G_1 D_1   
     e( 12 - 12) =     19.15921  eV     1   -->   ?

 **************************************************************************

 **************************************************************************

                    xk=(  -0.57500,   0.00000,   0.00000  )

     Band symmetry, C_4v (4mm)  point group:

     e(  1 -  1) =     -4.41789  eV     1   --> A_1  G_1 D_1   
     e(  2 -  2) =      1.80349  eV     1   --> B_2  G_4 D_2'  
     e(  3 -  4) =      3.88852  eV     2   --> E    G_5 D_5   
     e(  5 -  5) =      6.93995  eV     1   --> A_1  G_1 D_1   
     e(  6 -  6) =      8.59738  eV     1   --> B_2  G_4 D_2'  
     e(  7 -  8) =     12.32984  eV     2   --> E    G_5 D_5   
     e(  9 -  9) =     14.60128  eV     1   --> B_2  G_4 D_2'  
     e( 10 - 10) =     15.28213  eV     1   --> A_2  G_2 D_1'  
     e( 11 - 11) =     18.04598  eV     1   --> A_1  G_1 D_1   
     e( 12 - 12) =     19.26400  eV     1   -->   ?

 **************************************************************************

 **************************************************************************

                    xk=(  -0.60000,   0.00000,   0.00000  )

     Band symmetry, C_4v (4mm)  point group:

     e(  1 -  1) =     -4.29614  eV     1   --> A_1  G_1 D_1   
     e(  2 -  2) =      1.58272  eV     1   --> B_2  G_4 D_2'  
     e(  3 -  4) =      3.81131  eV     2   --> E    G_5 D_5   
     e(  5 -  5) =      6.88166  eV     1   --> A_1  G_1 D_1   
     e(  6 -  6) =      8.43050  eV     1   --> B_2  G_4 D_2'  
     e(  7 -  8) =     12.55233  eV     2   --> E    G_5 D_5   
     e(  9 -  9) =     14.86381  eV     1   --> B_2  G_4 D_2'  
     e( 10 - 10) =     15.42144  eV     1   --> A_2  G_2 D_1'  
     e( 11 - 11) =     18.29228  eV     1   --> A_1  G_1 D_1   
     e( 12 - 12) =     19.33956  eV     1   -->   ?

 **************************************************************************

 **************************************************************************

                    xk=(  -0.62500,   0.00000,   0.00000  )

     Band symmetry, C_4v (4mm)  point group:

     e(  1 -  1) =     -4.16964  eV     1   --> A_1  G_1 D_1   
     e(  2 -  2) =      1.36255  eV     1   --> B_2  G_4 D_2'  
     e(  3 -  4) =      3.73840  eV     2   --> E    G_5 D_5   
     e(  5 -  5) =      6.82840  eV     1   --> A_1  G_1 D_1   
     e(  6 -  6) =      8.26976  eV     1   --> B_2  G_4 D_2'  
     e(  7 -  8) =     12.77630  eV     2   --> E    G_5 D_5   
     e(  9 -  9) =     15.12729  eV     1   --> B_2  G_4 D_2'  
     e( 10 - 10) =     15.56660  eV     1   --> A_2  G_2 D_1'  
     e( 11 - 11) =     18.52926  eV     1   --> A_1  G_1 D_1   
     e( 12 - 12) =     19.37543  eV     1   -->   ?

 **************************************************************************

 **************************************************************************

                    xk=(  -0.65000,   0.00000,   0.00000  )

     Band symmetry, C_4v (4mm)  point group:

     e(  1 -  1) =     -4.03845  eV     1   --> A_1  G_1 D_1   
     e(  2 -  2) =      1.14315  eV     1   --> B_2  G_4 D_2'  
     e(  3 -  4) =      3.66987  eV     2   --> E    G_5 D_5   
     e(  5 -  5) =      6.78037  eV     1   --> A_1  G_1 D_1   
     e(  6 -  6) =      8.11567  eV     1   --> B_2  G_4 D_2'  
     e(  7 -  8) =     13.00165  eV     2   --> E    G_5 D_5   
     e(  9 -  9) =     15.39094  eV     1   --> B_2  G_4 D_2'  
     e( 10 - 10) =     15.71759  eV     1   --> A_2  G_2 D_1'  
     e( 11 - 11) =     18.75327  eV     1   --> A_1  G_1 D_1   
     e( 12 - 12) =     19.36317  eV     1   -->   ?

 **************************************************************************

 **************************************************************************

                    xk=(  -0.67500,   0.00000,   0.00000  )

     Band symmetry, C_4v (4mm)  point group:

     e(  1 -  1) =     -3.90264  eV     1   --> A_1  G_1 D_1   
     e(  2 -  2) =      0.92468  eV     1   --> B_2  G_4 D_2'  
     e(  3 -  4) =      3.60581  eV     2   --> E    G_5 D_5   
     e(  5 -  5) =      6.73777  eV     1   --> A_1  G_1 D_1   
     e(  6 -  6) =      7.96859  eV     1   --> B_2  G_4 D_2'  
     e(  7 -  8) =     13.22828  eV     2   --> E    G_5 D_5   
     e(  9 -  9) =     15.65407  eV     1   --> B_2  G_4 D_2'  
     e( 10 - 10) =     15.87441  eV     1   --> A_2  G_2 D_1'  
     e( 11 - 11) =     18.96002  eV     1   --> A_1  G_1 D_1   
     e( 12 - 12) =     19.29967  eV     1   -->   ?

 **************************************************************************

 **************************************************************************

                    xk=(  -0.70000,   0.00000,   0.00000  )

     Band symmetry, C_4v (4mm)  point group:

     e(  1 -  1) =     -3.76227  eV     1   --> A_1  G_1 D_1   
     e(  2 -  2) =      0.70730  eV     1   --> B_2  G_4 D_2'  
     e(  3 -  4) =      3.54628  eV     2   --> E    G_5 D_5   
     e(  5 -  5) =      6.70077  eV     1   --> A_1  G_1 D_1   
     e(  6 -  6) =      7.82879  eV     1   --> B_2  G_4 D_2'  
     e(  7 -  8) =     13.45610  eV     2   --> E    G_5 D_5   
     e(  9 -  9) =     15.91604  eV     1   --> B_2  G_4 D_2'  
     e( 10 - 10) =     16.03705  eV     1   --> A_2  G_2 D_1'  
     e( 11 - 11) =     19.14466  eV     1   --> A_1  G_1 D_1   
     e( 12 - 12) =     19.18842  eV     1   -->   ?

 **************************************************************************

 **************************************************************************

                    xk=(  -0.72500,   0.00000,   0.00000  )

     Band symmetry, C_4v (4mm)  point group:

     e(  1 -  1) =     -3.61742  eV     1   --> A_1  G_1 D_1   
     e(  2 -  2) =      0.49119  eV     1   --> B_2  G_4 D_2'  
     e(  3 -  4) =      3.49132  eV     2   --> E    G_5 D_5   
     e(  5 -  5) =      6.66955  eV     1   --> A_1  G_1 D_1   
     e(  6 -  6) =      7.69647  eV     1   --> B_2  G_4 D_2'  
     e(  7 -  8) =     13.68497  eV     2   --> E    G_5 D_5   
     e(  9 -  9) =     16.17630  eV     1   --> B_2  G_4 D_2'  
     e( 10 - 10) =     16.20547  eV     1   --> A_2  G_2 D_1'  
     e( 11 - 12) =     19.03757  eV     2   --> E    G_5 D_5   

 **************************************************************************

 **************************************************************************

                    xk=(  -0.75000,   0.00000,   0.00000  )

     Band symmetry, C_4v (4mm)  point group:

     e(  1 -  1) =     -3.46817  eV     1   --> A_1  G_1 D_1   
     e(  2 -  2) =      0.27652  eV     1   --> B_2  G_4 D_2'  
     e(  3 -  4) =      3.44100  eV     2   --> E    G_5 D_5   
     e(  5 -  5) =      6.64426  eV     1   --> A_1  G_1 D_1   
     e(  6 -  6) =      7.57175  eV     1   --> B_2  G_4 D_2'  
     e(  7 -  8) =     13.91475  eV     2   --> E    G_5 D_5   
     e(  9 -  9) =     16.37969  eV     1   --> A_2  G_2 D_1'  
     e( 10 - 10) =     16.43430  eV     1   --> B_2  G_4 D_2'  
     e( 11 - 12) =     18.85668  eV     2   --> E    G_5 D_5   

 **************************************************************************

 **************************************************************************

                    xk=(  -0.77500,   0.00000,   0.00000  )

     Band symmetry, C_4v (4mm)  point group:

     e(  1 -  1) =     -3.31459  eV     1   --> A_1  G_1 D_1   
     e(  2 -  2) =      0.06345  eV     1   --> B_2  G_4 D_2'  
     e(  3 -  4) =      3.39535  eV     2   --> E    G_5 D_5   
     e(  5 -  5) =      6.62505  eV     1   --> A_1  G_1 D_1   
     e(  6 -  6) =      7.45473  eV     1   --> B_2  G_4 D_2'  
     e(  7 -  8) =     14.14520  eV     2   --> E    G_5 D_5   
     e(  9 -  9) =     16.55966  eV     1   --> A_2  G_2 D_1'  
     e( 10 - 10) =     16.68951  eV     1   --> B_2  G_4 D_2'  
     e( 11 - 12) =     18.65441  eV     2   --> E    G_5 D_5   

 **************************************************************************

 **************************************************************************

                    xk=(  -0.80000,   0.00000,   0.00000  )

     Band symmetry, C_4v (4mm)  point group:

     e(  1 -  1) =     -3.15679  eV     1   --> A_1  G_1 D_1   
     e(  2 -  2) =     -0.14783  eV     1   --> B_2  G_4 D_2'  
     e(  3 -  4) =      3.35442  eV     2   --> E    G_5 D_5   
     e(  5 -  5) =      6.61206  eV     1   --> A_1  G_1 D_1   
     e(  6 -  6) =      7.34544  eV     1   --> B_2  G_4 D_2'  
     e(  7 -  8) =     14.37598  eV     2   --> E    G_5 D_5   
     e(  9 -  9) =     16.74539  eV     1   --> A_2  G_2 D_1'  
     e( 10 - 10) =     16.94141  eV     1   --> B_2  G_4 D_2'  
     e( 11 - 12) =     18.43777  eV     2   --> E    G_5 D_5   

 **************************************************************************

 **************************************************************************

                    xk=(  -0.82500,   0.00000,   0.00000  )

     Band symmetry, C_4v (4mm)  point group:

     e(  1 -  1) =     -2.99483  eV     1   --> A_1  G_1 D_1   
     e(  2 -  2) =     -0.35717  eV     1   --> B_2  G_4 D_2'  
     e(  3 -  4) =      3.31823  eV     2   --> E    G_5 D_5   
     e(  5 -  5) =      6.60543  eV     1   --> A_1  G_1 D_1   
     e(  6 -  6) =      7.24391  eV     1   --> B_2  G_4 D_2'  
     e(  7 -  8) =     14.60656  eV     2   --> E    G_5 D_5   
     e(  9 -  9) =     16.93685  eV     1   --> A_2  G_2 D_1'  
     e( 10 - 10) =     17.18944  eV     1   --> B_2  G_4 D_2'  
     e( 11 - 12) =     18.21223  eV     2   --> E    G_5 D_5   

 **************************************************************************

 **************************************************************************

                    xk=(  -0.85000,   0.00000,   0.00000  )

     Band symmetry, C_4v (4mm)  point group:

     e(  1 -  1) =     -2.82884  eV     1   --> A_1  G_1 D_1   
     e(  2 -  2) =     -0.56439  eV     1   --> B_2  G_4 D_2'  
     e(  3 -  4) =      3.28681  eV     2   --> E    G_5 D_5   
     e(  5 -  5) =      6.60528  eV     1   --> A_1  G_1 D_1   
     e(  6 -  6) =      7.15011  eV     1   --> B_2  G_4 D_2'  
     e(  7 -  8) =     14.83611  eV     2   --> E    G_5 D_5   
     e(  9 -  9) =     17.13402  eV     1   --> A_2  G_2 D_1'  
     e( 10 - 10) =     17.43301  eV     1   --> B_2  G_4 D_2'  
     e( 11 - 12) =     17.98216  eV     2   --> E    G_5 D_5   

 **************************************************************************

 **************************************************************************

                    xk=(  -0.87500,   0.00000,   0.00000  )

     Band symmetry, C_4v (4mm)  point group:

     e(  1 -  1) =     -2.65890  eV     1   --> A_1  G_1 D_1   
     e(  2 -  2) =     -0.76932  eV     1   --> B_2  G_4 D_2'  
     e(  3 -  4) =      3.26019  eV     2   --> E    G_5 D_5   
     e(  5 -  5) =      6.61174  eV     1   --> A_1  G_1 D_1   
     e(  6 -  6) =      7.06403  eV     1   --> B_2  G_4 D_2'  
     e(  7 -  8) =     15.06316  eV     2   --> E    G_5 D_5   
     e(  9 -  9) =     17.33688  eV     1   --> A_2  G_2 D_1'  
     e( 10 - 10) =     17.67145  eV     1   --> B_2  G_4 D_2'  
     e( 11 - 12) =     17.75155  eV     2   --> E    G_5 D_5   

 **************************************************************************

 **************************************************************************

                    xk=(  -0.90000,   0.00000,   0.00000  )

     Band symmetry, C_4v (4mm)  point group:

     e(  1 -  1) =     -2.48513  eV     1   --> A_1  G_1 D_1   
     e(  2 -  2) =     -0.97180  eV     1   --> B_2  G_4 D_2'  
     e(  3 -  4) =      3.23838  eV     2   --> E    G_5 D_5   
     e(  5 -  5) =      6.62492  eV     1   --> A_1  G_1 D_1   
     e(  6 -  6) =      6.98561  eV     1   --> B_2  G_4 D_2'  
     e(  7 -  8) =     15.28507  eV     2   --> E    G_5 D_5   
     e(  9 - 10) =     17.52481  eV     2   --> E    G_5 D_5   
     e( 11 - 11) =     17.54540  eV     1   --> A_2  G_2 D_1'  
     e( 12 - 12) =     17.90397  eV     1   --> B_2  G_4 D_2'  

 **************************************************************************

 **************************************************************************

                    xk=(  -0.92500,   0.00000,   0.00000  )

     Band symmetry, C_4v (4mm)  point group:

     e(  1 -  1) =     -2.30764  eV     1   --> A_1  G_1 D_1   
     e(  2 -  2) =     -1.17167  eV     1   --> B_2  G_4 D_2'  
     e(  3 -  4) =      3.22141  eV     2   --> E    G_5 D_5   
     e(  5 -  5) =      6.64495  eV     1   --> A_1  G_1 D_1   
     e(  6 -  6) =      6.91479  eV     1   --> B_2  G_4 D_2'  
     e(  7 -  8) =     15.49667  eV     2   --> E    G_5 D_5   
     e(  9 - 10) =     17.30836  eV     2   --> E    G_5 D_5   
     e( 11 - 11) =     17.75957  eV     1   --> A_2  G_2 D_1'  
     e( 12 - 12) =     18.12964  eV     1   --> B_2  G_4 D_2'  

 **************************************************************************

 **************************************************************************

                    xk=(  -0.95000,   0.00000,   0.00000  )

     Band symmetry, C_4v (4mm)  point group:

     e(  1 -  1) =     -2.12654  eV     1   --> A_1  G_1 D_1   
     e(  2 -  2) =     -1.36877  eV     1   --> B_2  G_4 D_2'  
     e(  3 -  4) =      3.20927  eV     2   --> E    G_5 D_5   
     e(  5 -  5) =      6.67193  eV     1   --> A_1  G_1 D_1   
     e(  6 -  6) =      6.85150  eV     1   --> B_2  G_4 D_2'  
     e(  7 -  8) =     15.68700  eV     2   --> E    G_5 D_5   
     e(  9 - 10) =     17.11402  eV     2   --> E    G_5 D_5   
     e( 11 - 11) =     17.97936  eV     1   --> A_2  G_2 D_1'  
     e( 12 - 12) =     18.34732  eV     1   --> B_2  G_4 D_2'  

 **************************************************************************

 **************************************************************************

                    xk=(  -0.97500,   0.00000,   0.00000  )

     Band symmetry, C_4v (4mm)  point group:

     e(  1 -  1) =     -1.94198  eV     1   --> A_1  G_1 D_1   
     e(  2 -  2) =     -1.56295  eV     1   --> B_2  G_4 D_2'  
     e(  3 -  4) =      3.20199  eV     2   --> E    G_5 D_5   
     e(  5 -  5) =      6.70597  eV     1   --> A_1  G_1 D_1   
     e(  6 -  6) =      6.79566  eV     1   --> B_2  G_4 D_2'  
     e(  7 -  8) =     15.83215  eV     2   --> E    G_5 D_5   
     e(  9 - 10) =     16.96627  eV     2   --> E    G_5 D_5   
     e( 11 - 11) =     18.20474  eV     1   --> A_2  G_2 D_1'  
     e( 12 - 12) =     18.55561  eV     1   --> B_2  G_4 D_2'  

 **************************************************************************

 **************************************************************************

                    xk=(  -1.00000,   0.00000,   0.00000  )

     zone border point and non-symmorphic group 
     symmetry decomposition not available

 **************************************************************************

 **************************************************************************

                    xk=(  -1.00000,   0.01250,   0.00000  )

     zone border point and non-symmorphic group 
     symmetry decomposition not available

 **************************************************************************

 **************************************************************************

                    xk=(  -1.00000,   0.02500,   0.00000  )

     zone border point and non-symmorphic group 
     symmetry decomposition not available

 **************************************************************************

 **************************************************************************

                    xk=(  -1.00000,   0.03750,   0.00000  )

     zone border point and non-symmorphic group 
     symmetry decomposition not available

 **************************************************************************

 **************************************************************************

                    xk=(  -1.00000,   0.05000,   0.00000  )

     zone border point and non-symmorphic group 
     symmetry decomposition not available

 **************************************************************************

 **************************************************************************

                    xk=(  -1.00000,   0.06250,   0.00000  )

     zone border point and non-symmorphic group 
     symmetry decomposition not available

 **************************************************************************

 **************************************************************************

                    xk=(  -1.00000,   0.07500,   0.00000  )

     zone border point and non-symmorphic group 
     symmetry decomposition not available

 **************************************************************************

 **************************************************************************

                    xk=(  -1.00000,   0.08750,   0.00000  )

     zone border point and non-symmorphic group 
     symmetry decomposition not available

 **************************************************************************

 **************************************************************************

                    xk=(  -1.00000,   0.10000,   0.00000  )

     zone border point and non-symmorphic group 
     symmetry decomposition not available

 **************************************************************************

 **************************************************************************

                    xk=(  -1.00000,   0.11250,   0.00000  )

     zone border point and non-symmorphic group 
     symmetry decomposition not available

 **************************************************************************

 **************************************************************************

                    xk=(  -1.00000,   0.12500,   0.00000  )

     zone border point and non-symmorphic group 
     symmetry decomposition not available

 **************************************************************************

 **************************************************************************

                    xk=(  -1.00000,   0.13750,   0.00000  )

     zone border point and non-symmorphic group 
     symmetry decomposition not available

 **************************************************************************

 **************************************************************************

                    xk=(  -1.00000,   0.15000,   0.00000  )

     zone border point and non-symmorphic group 
     symmetry decomposition not available

 **************************************************************************

 **************************************************************************

                    xk=(  -1.00000,   0.16250,   0.00000  )

     zone border point and non-symmorphic group 
     symmetry decomposition not available

 **************************************************************************

 **************************************************************************

                    xk=(  -1.00000,   0.17500,   0.00000  )

     zone border point and non-symmorphic group 
     symmetry decomposition not available

 **************************************************************************

 **************************************************************************

                    xk=(  -1.00000,   0.18750,   0.00000  )

     zone border point and non-symmorphic group 
     symmetry decomposition not available

 **************************************************************************

 **************************************************************************

                    xk=(  -1.00000,   0.20000,   0.00000  )

     zone border point and non-symmorphic group 
     symmetry decomposition not available

 **************************************************************************

 **************************************************************************

                    xk=(  -1.00000,   0.21250,   0.00000  )

     zone border point and non-symmorphic group 
     symmetry decomposition not available

 **************************************************************************

 **************************************************************************

                    xk=(  -1.00000,   0.22500,   0.00000  )

     zone border point and non-symmorphic group 
     symmetry decomposition not available

 **************************************************************************

 **************************************************************************

                    xk=(  -1.00000,   0.23750,   0.00000  )

     zone border point and non-symmorphic group 
     symmetry decomposition not available

 **************************************************************************

 **************************************************************************

                    xk=(  -1.00000,   0.25000,   0.00000  )

     zone border point and non-symmorphic group 
     symmetry decomposition not available

 **************************************************************************

 **************************************************************************

                    xk=(  -1.00000,   0.26250,   0.00000  )

     zone border point and non-symmorphic group 
     symmetry decomposition not available

 **************************************************************************

 **************************************************************************

                    xk=(  -1.00000,   0.27500,   0.00000  )

     zone border point and non-symmorphic group 
     symmetry decomposition not available

 **************************************************************************

 **************************************************************************

                    xk=(  -1.00000,   0.28750,   0.00000  )

     zone border point and non-symmorphic group 
     symmetry decomposition not available

 **************************************************************************

 **************************************************************************

                    xk=(  -1.00000,   0.30000,   0.00000  )

     zone border point and non-symmorphic group 
     symmetry decomposition not available

 **************************************************************************

 **************************************************************************

                    xk=(  -1.00000,   0.31250,   0.00000  )

     zone border point and non-symmorphic group 
     symmetry decomposition not available

 **************************************************************************

 **************************************************************************

                    xk=(  -1.00000,   0.32500,   0.00000  )

     zone border point and non-symmorphic group 
     symmetry decomposition not available

 **************************************************************************

 **************************************************************************

                    xk=(  -1.00000,   0.33750,   0.00000  )

     zone border point and non-symmorphic group 
     symmetry decomposition not available

 **************************************************************************

 **************************************************************************

                    xk=(  -1.00000,   0.35000,   0.00000  )

     zone border point and non-symmorphic group 
     symmetry decomposition not available

 **************************************************************************

 **************************************************************************

                    xk=(  -1.00000,   0.36250,   0.00000  )

     zone border point and non-symmorphic group 
     symmetry decomposition not available

 **************************************************************************

 **************************************************************************

                    xk=(  -1.00000,   0.37500,   0.00000  )

     zone border point and non-symmorphic group 
     symmetry decomposition not available

 **************************************************************************

 **************************************************************************

                    xk=(  -1.00000,   0.38750,   0.00000  )

     zone border point and non-symmorphic group 
     symmetry decomposition not available

 **************************************************************************

 **************************************************************************

                    xk=(  -1.00000,   0.40000,   0.00000  )

     zone border point and non-symmorphic group 
     symmetry decomposition not available

 **************************************************************************

 **************************************************************************

                    xk=(  -1.00000,   0.41250,   0.00000  )

     zone border point and non-symmorphic group 
     symmetry decomposition not available

 **************************************************************************

 **************************************************************************

                    xk=(  -1.00000,   0.42500,   0.00000  )

     zone border point and non-symmorphic group 
     symmetry decomposition not available

 **************************************************************************

 **************************************************************************

                    xk=(  -1.00000,   0.43750,   0.00000  )

     zone border point and non-symmorphic group 
     symmetry decomposition not available

 **************************************************************************

 **************************************************************************

                    xk=(  -1.00000,   0.45000,   0.00000  )

     zone border point and non-symmorphic group 
     symmetry decomposition not available

 **************************************************************************

 **************************************************************************

                    xk=(  -1.00000,   0.46250,   0.00000  )

     zone border point and non-symmorphic group 
     symmetry decomposition not available

 **************************************************************************

 **************************************************************************

                    xk=(  -1.00000,   0.47500,   0.00000  )

     zone border point and non-symmorphic group 
     symmetry decomposition not available

 **************************************************************************

 **************************************************************************

                    xk=(  -1.00000,   0.48750,   0.00000  )

     zone border point and non-symmorphic group 
     symmetry decomposition not available

 **************************************************************************

 **************************************************************************

                    xk=(  -1.00000,   0.50000,   0.00000  )

     zone border point and non-symmorphic group 
     symmetry decomposition not available

 **************************************************************************

 **************************************************************************

                    xk=(  -0.99375,   0.50625,   0.00000  )

     point group C_s (m)    
     there are  2 classes
     the character table:

       E     s    
A'     1.00  1.00
A''    1.00 -1.00

     the symmetry operations in each class and the name of the first element:

     E        1
                                                                 
     s        2
                                                                 

     Band symmetry, C_s (m)     point group:

     e(  1 -  1) =     -1.62834  eV     1   --> A'             
     e(  2 -  2) =     -1.57269  eV     1   --> A''            
     e(  3 -  3) =      2.21499  eV     1   --> A'             
     e(  4 -  4) =      2.25793  eV     1   --> A''            
     e(  5 -  5) =     10.23212  eV     1   --> A''            
     e(  6 -  6) =     10.28735  eV     1   --> A'             
     e(  7 -  7) =     10.90163  eV     1   --> A''            
     e(  8 -  8) =     10.93585  eV     1   --> A'             
     e(  9 -  9) =     16.37429  eV     1   --> A'             
     e( 10 - 10) =     16.47729  eV     1   --> A''            
     e( 11 - 11) =     18.78928  eV     1   --> A''            
     e( 12 - 12) =     18.89725  eV     1   --> A'             

 **************************************************************************

 **************************************************************************

                    xk=(  -0.98750,   0.51250,   0.00000  )

     Band symmetry, C_s (m)     point group:

     e(  1 -  1) =     -1.65558  eV     1   --> A'             
     e(  2 -  2) =     -1.54610  eV     1   --> A''            
     e(  3 -  3) =      2.19456  eV     1   --> A'             
     e(  4 -  4) =      2.28190  eV     1   --> A''            
     e(  5 -  5) =     10.16776  eV     1   --> A''            
     e(  6 -  6) =     10.30062  eV     1   --> A'             
     e(  7 -  7) =     10.92359  eV     1   --> A''            
     e(  8 -  8) =     10.96905  eV     1   --> A'             
     e(  9 -  9) =     16.31989  eV     1   --> A'             
     e( 10 - 10) =     16.52374  eV     1   --> A''            
     e( 11 - 11) =     18.73904  eV     1   --> A''            
     e( 12 - 12) =     18.95376  eV     1   --> A'             

 **************************************************************************

 **************************************************************************

                    xk=(  -0.98125,   0.51875,   0.00000  )

     Band symmetry, C_s (m)     point group:

     e(  1 -  1) =     -1.68212  eV     1   --> A'             
     e(  2 -  2) =     -1.52064  eV     1   --> A''            
     e(  3 -  3) =      2.17457  eV     1   --> A'             
     e(  4 -  4) =      2.30776  eV     1   --> A''            
     e(  5 -  5) =     10.08429  eV     1   --> A''            
     e(  6 -  6) =     10.30920  eV     1   --> A'             
     e(  7 -  7) =     10.96638  eV     1   --> A''            
     e(  8 -  8) =     11.00799  eV     1   --> A'             
     e(  9 -  9) =     16.26400  eV     1   --> A'             
     e( 10 - 10) =     16.56571  eV     1   --> A''            
     e( 11 - 11) =     18.69230  eV     1   --> A''            
     e( 12 - 12) =     19.01165  eV     1   --> A'             

 **************************************************************************

 **************************************************************************

                    xk=(  -0.97500,   0.52500,   0.00000  )

     Band symmetry, C_s (m)     point group:

     e(  1 -  1) =     -1.70797  eV     1   --> A'             
     e(  2 -  2) =     -1.49632  eV     1   --> A''            
     e(  3 -  3) =      2.15505  eV     1   --> A'             
     e(  4 -  4) =      2.33547  eV     1   --> A''            
     e(  5 -  5) =      9.98912  eV     1   --> A''            
     e(  6 -  6) =     10.31371  eV     1   --> A'             
     e(  7 -  7) =     11.02258  eV     1   --> A''            
     e(  8 -  8) =     11.05204  eV     1   --> A'             
     e(  9 -  9) =     16.20674  eV     1   --> A'             
     e( 10 - 10) =     16.60246  eV     1   --> A''            
     e( 11 - 11) =     18.64989  eV     1   --> A''            
     e( 12 - 12) =     19.07080  eV     1   --> A'             

 **************************************************************************

 **************************************************************************

                    xk=(  -0.96875,   0.53125,   0.00000  )

     Band symmetry, C_s (m)     point group:

     e(  1 -  1) =     -1.73313  eV     1   --> A'             
     e(  2 -  2) =     -1.47312  eV     1   --> A''            
     e(  3 -  3) =      2.13599  eV     1   --> A'             
     e(  4 -  4) =      2.36500  eV     1   --> A''            
     e(  5 -  5) =      9.88714  eV     1   --> A''            
     e(  6 -  6) =     10.31481  eV     1   --> A'             
     e(  7 -  7) =     11.08735  eV     1   --> A''            
     e(  8 -  8) =     11.10052  eV     1   --> A'             
     e(  9 -  9) =     16.14821  eV     1   --> A'             
     e( 10 - 10) =     16.63317  eV     1   --> A''            
     e( 11 - 11) =     18.61268  eV     1   --> A''            
     e( 12 - 12) =     19.13109  eV     1   --> A'             

 **************************************************************************

 **************************************************************************

                    xk=(  -0.96250,   0.53750,   0.00000  )

     Band symmetry, C_s (m)     point group:

     e(  1 -  1) =     -1.75759  eV     1   --> A'             
     e(  2 -  2) =     -1.45103  eV     1   --> A''            
     e(  3 -  3) =      2.11741  eV     1   --> A'             
     e(  4 -  4) =      2.39630  eV     1   --> A''            
     e(  5 -  5) =      9.78130  eV     1   --> A''            
     e(  6 -  6) =     10.31317  eV     1   --> A'             
     e(  7 -  7) =     11.15276  eV     1   --> A'             
     e(  8 -  8) =     11.15779  eV     1   --> A''            
     e(  9 -  9) =     16.08850  eV     1   --> A'             
     e( 10 - 10) =     16.65702  eV     1   --> A''            
     e( 11 - 11) =     18.58157  eV     1   --> A''            
     e( 12 - 12) =     19.19241  eV     1   --> A'             

 **************************************************************************

 **************************************************************************

                    xk=(  -0.95625,   0.54375,   0.00000  )

     Band symmetry, C_s (m)     point group:

     e(  1 -  1) =     -1.78135  eV     1   --> A'             
     e(  2 -  2) =     -1.43005  eV     1   --> A''            
     e(  3 -  3) =      2.09930  eV     1   --> A'             
     e(  4 -  4) =      2.42931  eV     1   --> A''            
     e(  5 -  5) =      9.67338  eV     1   --> A''            
     e(  6 -  6) =     10.30934  eV     1   --> A'             
     e(  7 -  7) =     11.20819  eV     1   --> A'             
     e(  8 -  8) =     11.23215  eV     1   --> A''            
     e(  9 -  9) =     16.02770  eV     1   --> A'             
     e( 10 - 10) =     16.67320  eV     1   --> A''            
     e( 11 - 11) =     18.55741  eV     1   --> A''            
     e( 12 - 12) =     19.25468  eV     1   --> A'             

 **************************************************************************

 **************************************************************************

                    xk=(  -0.95000,   0.55000,   0.00000  )

     Band symmetry, C_s (m)     point group:

     e(  1 -  1) =     -1.80441  eV     1   --> A'             
     e(  2 -  2) =     -1.41015  eV     1   --> A''            
     e(  3 -  3) =      2.08168  eV     1   --> A'             
     e(  4 -  4) =      2.46398  eV     1   --> A''            
     e(  5 -  5) =      9.56446  eV     1   --> A''            
     e(  6 -  6) =     10.30382  eV     1   --> A'             
     e(  7 -  7) =     11.26630  eV     1   --> A'             
     e(  8 -  8) =     11.30939  eV     1   --> A''            
     e(  9 -  9) =     15.96586  eV     1   --> A'             
     e( 10 - 10) =     16.68103  eV     1   --> A''            
     e( 11 - 11) =     18.54097  eV     1   --> A''            
     e( 12 - 12) =     19.31779  eV     1   --> A'             

 **************************************************************************

 **************************************************************************

                    xk=(  -0.94375,   0.55625,   0.00000  )

     Band symmetry, C_s (m)     point group:

     e(  1 -  1) =     -1.82677  eV     1   --> A'             
     e(  2 -  2) =     -1.39133  eV     1   --> A''            
     e(  3 -  3) =      2.06455  eV     1   --> A'             
     e(  4 -  4) =      2.50023  eV     1   --> A''            
     e(  5 -  5) =      9.45527  eV     1   --> A''            
     e(  6 -  6) =     10.29701  eV     1   --> A'             
     e(  7 -  7) =     11.32667  eV     1   --> A'             
     e(  8 -  8) =     11.38883  eV     1   --> A''            
     e(  9 -  9) =     15.90307  eV     1   --> A'             
     e( 10 - 10) =     16.67998  eV     1   --> A''            
     e( 11 - 11) =     18.53284  eV     1   --> A''            
     e( 12 - 12) =     19.38169  eV     1   --> A'             

 **************************************************************************

 **************************************************************************

                    xk=(  -0.93750,   0.56250,   0.00000  )

     Band symmetry, C_s (m)     point group:

     e(  1 -  1) =     -1.84843  eV     1   --> A'             
     e(  2 -  2) =     -1.37354  eV     1   --> A''            
     e(  3 -  3) =      2.04791  eV     1   --> A'             
     e(  4 -  4) =      2.53800  eV     1   --> A''            
     e(  5 -  5) =      9.34629  eV     1   --> A''            
     e(  6 -  6) =     10.28923  eV     1   --> A'             
     e(  7 -  7) =     11.38897  eV     1   --> A'             
     e(  8 -  8) =     11.47003  eV     1   --> A''            
     e(  9 -  9) =     15.83937  eV     1   --> A'             
     e( 10 - 10) =     16.66975  eV     1   --> A''            
     e( 11 - 11) =     18.53339  eV     1   --> A''            
     e( 12 - 12) =     19.44629  eV     1   --> A'             

 **************************************************************************

 **************************************************************************

                    xk=(  -0.93125,   0.56875,   0.00000  )

     Band symmetry, C_s (m)     point group:

     e(  1 -  1) =     -1.86939  eV     1   --> A'             
     e(  2 -  2) =     -1.35678  eV     1   --> A''            
     e(  3 -  3) =      2.03177  eV     1   --> A'             
     e(  4 -  4) =      2.57718  eV     1   --> A''            
     e(  5 -  5) =      9.23790  eV     1   --> A''            
     e(  6 -  6) =     10.28076  eV     1   --> A'             
     e(  7 -  7) =     11.45291  eV     1   --> A'             
     e(  8 -  8) =     11.55268  eV     1   --> A''            
     e(  9 -  9) =     15.77482  eV     1   --> A'             
     e( 10 - 10) =     16.65032  eV     1   --> A''            
     e( 11 - 11) =     18.54269  eV     1   --> A''            
     e( 12 - 12) =     19.51152  eV     1   --> A'             

 **************************************************************************

 **************************************************************************

                    xk=(  -0.92500,   0.57500,   0.00000  )

     Band symmetry, C_s (m)     point group:

     e(  1 -  1) =     -1.88964  eV     1   --> A'             
     e(  2 -  2) =     -1.34100  eV     1   --> A''            
     e(  3 -  3) =      2.01614  eV     1   --> A'             
     e(  4 -  4) =      2.61771  eV     1   --> A''            
     e(  5 -  5) =      9.13036  eV     1   --> A''            
     e(  6 -  6) =     10.27179  eV     1   --> A'             
     e(  7 -  7) =     11.51827  eV     1   --> A'             
     e(  8 -  8) =     11.63657  eV     1   --> A''            
     e(  9 -  9) =     15.70947  eV     1   --> A'             
     e( 10 - 10) =     16.62191  eV     1   --> A''            
     e( 11 - 11) =     18.56058  eV     1   --> A''            
     e( 12 - 12) =     19.57734  eV     1   --> A'             

 **************************************************************************

 **************************************************************************

                    xk=(  -0.91875,   0.58125,   0.00000  )

     Band symmetry, C_s (m)     point group:

     e(  1 -  1) =     -1.90919  eV     1   --> A'             
     e(  2 -  2) =     -1.32618  eV     1   --> A''            
     e(  3 -  3) =      2.00102  eV     1   --> A'             
     e(  4 -  4) =      2.65946  eV     1   --> A''            
     e(  5 -  5) =      9.02389  eV     1   --> A''            
     e(  6 -  6) =     10.26251  eV     1   --> A'             
     e(  7 -  7) =     11.58486  eV     1   --> A'             
     e(  8 -  8) =     11.72154  eV     1   --> A''            
     e(  9 -  9) =     15.64336  eV     1   --> A'             
     e( 10 - 10) =     16.58501  eV     1   --> A''            
     e( 11 - 11) =     18.58666  eV     1   --> A''            
     e( 12 - 12) =     19.64367  eV     1   --> A'             

 **************************************************************************

 **************************************************************************

                    xk=(  -0.91250,   0.58750,   0.00000  )

     Band symmetry, C_s (m)     point group:

     e(  1 -  1) =     -1.92804  eV     1   --> A'             
     e(  2 -  2) =     -1.31229  eV     1   --> A''            
     e(  3 -  3) =      1.98641  eV     1   --> A'             
     e(  4 -  4) =      2.70235  eV     1   --> A''            
     e(  5 -  5) =      8.91868  eV     1   --> A''            
     e(  6 -  6) =     10.25304  eV     1   --> A'             
     e(  7 -  7) =     11.65253  eV     1   --> A'             
     e(  8 -  8) =     11.80748  eV     1   --> A''            
     e(  9 -  9) =     15.57653  eV     1   --> A'             
     e( 10 - 10) =     16.54024  eV     1   --> A''            
     e( 11 - 11) =     18.62035  eV     1   --> A''            
     e( 12 - 12) =     19.71045  eV     1   --> A'             

 **************************************************************************

 **************************************************************************

                    xk=(  -0.90625,   0.59375,   0.00000  )

     Band symmetry, C_s (m)     point group:

     e(  1 -  1) =     -1.94618  eV     1   --> A'             
     e(  2 -  2) =     -1.29930  eV     1   --> A''            
     e(  3 -  3) =      1.97232  eV     1   --> A'             
     e(  4 -  4) =      2.74624  eV     1   --> A''            
     e(  5 -  5) =      8.81489  eV     1   --> A''            
     e(  6 -  6) =     10.24349  eV     1   --> A'             
     e(  7 -  7) =     11.72114  eV     1   --> A'             
     e(  8 -  8) =     11.89429  eV     1   --> A''            
     e(  9 -  9) =     15.50904  eV     1   --> A'             
     e( 10 - 10) =     16.48832  eV     1   --> A''            
     e( 11 - 11) =     18.66098  eV     1   --> A''            
     e( 12 - 12) =     19.77765  eV     1   --> A'             

 **************************************************************************

 **************************************************************************

                    xk=(  -0.90000,   0.60000,   0.00000  )

     Band symmetry, C_s (m)     point group:

     e(  1 -  1) =     -1.96362  eV     1   --> A'             
     e(  2 -  2) =     -1.28716  eV     1   --> A''            
     e(  3 -  3) =      1.95876  eV     1   --> A'             
     e(  4 -  4) =      2.79102  eV     1   --> A''            
     e(  5 -  5) =      8.71269  eV     1   --> A''            
     e(  6 -  6) =     10.23396  eV     1   --> A'             
     e(  7 -  7) =     11.79060  eV     1   --> A'             
     e(  8 -  8) =     11.98189  eV     1   --> A''            
     e(  9 -  9) =     15.44091  eV     1   --> A'             
     e( 10 - 10) =     16.43003  eV     1   --> A''            
     e( 11 - 11) =     18.70784  eV     1   --> A''            
     e( 12 - 12) =     19.84519  eV     1   --> A'             

 **************************************************************************

 **************************************************************************

                    xk=(  -0.89375,   0.60625,   0.00000  )

     Band symmetry, C_s (m)     point group:

     e(  1 -  1) =     -1.98035  eV     1   --> A'             
     e(  2 -  2) =     -1.27585  eV     1   --> A''            
     e(  3 -  3) =      1.94572  eV     1   --> A'             
     e(  4 -  4) =      2.83656  eV     1   --> A''            
     e(  5 -  5) =      8.61223  eV     1   --> A''            
     e(  6 -  6) =     10.22452  eV     1   --> A'             
     e(  7 -  7) =     11.86080  eV     1   --> A'             
     e(  8 -  8) =     12.07023  eV     1   --> A''            
     e(  9 -  9) =     15.37218  eV     1   --> A'             
     e( 10 - 10) =     16.36611  eV     1   --> A''            
     e( 11 - 11) =     18.76023  eV     1   --> A''            
     e( 12 - 12) =     19.91303  eV     1   --> A'             

 **************************************************************************

 **************************************************************************

                    xk=(  -0.88750,   0.61250,   0.00000  )

     Band symmetry, C_s (m)     point group:

     e(  1 -  1) =     -1.99637  eV     1   --> A'             
     e(  2 -  2) =     -1.26533  eV     1   --> A''            
     e(  3 -  3) =      1.93321  eV     1   --> A'             
     e(  4 -  4) =      2.88270  eV     1   --> A''            
     e(  5 -  5) =      8.51365  eV     1   --> A''            
     e(  6 -  6) =     10.21524  eV     1   --> A'             
     e(  7 -  7) =     11.93165  eV     1   --> A'             
     e(  8 -  8) =     12.15925  eV     1   --> A''            
     e(  9 -  9) =     15.30290  eV     1   --> A'             
     e( 10 - 10) =     16.29729  eV     1   --> A''            
     e( 11 - 11) =     18.81748  eV     1   --> A''            
     e( 12 - 12) =     19.98111  eV     1   --> A'             

 **************************************************************************

 **************************************************************************

                    xk=(  -0.88125,   0.61875,   0.00000  )

     Band symmetry, C_s (m)     point group:

     e(  1 -  1) =     -2.01168  eV     1   --> A'             
     e(  2 -  2) =     -1.25557  eV     1   --> A''            
     e(  3 -  3) =      1.92123  eV     1   --> A'             
     e(  4 -  4) =      2.92929  eV     1   --> A''            
     e(  5 -  5) =      8.41711  eV     1   --> A''            
     e(  6 -  6) =     10.20616  eV     1   --> A'             
     e(  7 -  7) =     12.00308  eV     1   --> A'             
     e(  8 -  8) =     12.24891  eV     1   --> A''            
     e(  9 -  9) =     15.23310  eV     1   --> A'             
     e( 10 - 10) =     16.22421  eV     1   --> A''            
     e( 11 - 11) =     18.87900  eV     1   --> A''            
     e( 12 - 12) =     20.04939  eV     1   --> A'             

 **************************************************************************

 **************************************************************************

                    xk=(  -0.87500,   0.62500,   0.00000  )

     Band symmetry, C_s (m)     point group:

     e(  1 -  1) =     -2.02629  eV     1   --> A'             
     e(  2 -  2) =     -1.24652  eV     1   --> A''            
     e(  3 -  3) =      1.90979  eV     1   --> A'             
     e(  4 -  4) =      2.97618  eV     1   --> A''            
     e(  5 -  5) =      8.32277  eV     1   --> A''            
     e(  6 -  6) =     10.19733  eV     1   --> A'             
     e(  7 -  7) =     12.07502  eV     1   --> A'             
     e(  8 -  8) =     12.33916  eV     1   --> A''            
     e(  9 -  9) =     15.16282  eV     1   --> A'             
     e( 10 - 10) =     16.14744  eV     1   --> A''            
     e( 11 - 11) =     18.94425  eV     1   --> A''            
     e( 12 - 12) =     20.11779  eV     1   --> A'             

 **************************************************************************

 **************************************************************************

                    xk=(  -0.86875,   0.63125,   0.00000  )

     Band symmetry, C_s (m)     point group:

     e(  1 -  1) =     -2.04019  eV     1   --> A'             
     e(  2 -  2) =     -1.23816  eV     1   --> A''            
     e(  3 -  3) =      1.89889  eV     1   --> A'             
     e(  4 -  4) =      3.02317  eV     1   --> A''            
     e(  5 -  5) =      8.23078  eV     1   --> A''            
     e(  6 -  6) =     10.18878  eV     1   --> A'             
     e(  7 -  7) =     12.14740  eV     1   --> A'             
     e(  8 -  8) =     12.42997  eV     1   --> A''            
     e(  9 -  9) =     15.09211  eV     1   --> A'             
     e( 10 - 10) =     16.06751  eV     1   --> A''            
     e( 11 - 11) =     19.01275  eV     1   --> A''            
     e( 12 - 12) =     20.18627  eV     1   --> A'             

 **************************************************************************

 **************************************************************************

                    xk=(  -0.86250,   0.63750,   0.00000  )

     Band symmetry, C_s (m)     point group:

     e(  1 -  1) =     -2.05337  eV     1   --> A'             
     e(  2 -  2) =     -1.23045  eV     1   --> A''            
     e(  3 -  3) =      1.88853  eV     1   --> A'             
     e(  4 -  4) =      3.07009  eV     1   --> A''            
     e(  5 -  5) =      8.14133  eV     1   --> A''            
     e(  6 -  6) =     10.18055  eV     1   --> A'             
     e(  7 -  7) =     12.22016  eV     1   --> A'             
     e(  8 -  8) =     12.52130  eV     1   --> A''            
     e(  9 -  9) =     15.02101  eV     1   --> A'             
     e( 10 - 10) =     15.98486  eV     1   --> A''            
     e( 11 - 11) =     19.08410  eV     1   --> A''            
     e( 12 - 12) =     20.25476  eV     1   --> A'             

 **************************************************************************

 **************************************************************************

                    xk=(  -0.85625,   0.64375,   0.00000  )

     Band symmetry, C_s (m)     point group:

     e(  1 -  1) =     -2.06585  eV     1   --> A'             
     e(  2 -  2) =     -1.22335  eV     1   --> A''            
     e(  3 -  3) =      1.87872  eV     1   --> A'             
     e(  4 -  4) =      3.11673  eV     1   --> A''            
     e(  5 -  5) =      8.05459  eV     1   --> A''            
     e(  6 -  6) =     10.17265  eV     1   --> A'             
     e(  7 -  7) =     12.29322  eV     1   --> A'             
     e(  8 -  8) =     12.61310  eV     1   --> A''            
     e(  9 -  9) =     14.94956  eV     1   --> A'             
     e( 10 - 10) =     15.89990  eV     1   --> A''            
     e( 11 - 11) =     19.15793  eV     1   --> A''            
     e( 12 - 12) =     20.32319  eV     1   --> A'             

 **************************************************************************

 **************************************************************************

                    xk=(  -0.85000,   0.65000,   0.00000  )

     Band symmetry, C_s (m)     point group:

     e(  1 -  1) =     -2.07762  eV     1   --> A'             
     e(  2 -  2) =     -1.21685  eV     1   --> A''            
     e(  3 -  3) =      1.86945  eV     1   --> A'             
     e(  4 -  4) =      3.16287  eV     1   --> A''            
     e(  5 -  5) =      7.97077  eV     1   --> A''            
     e(  6 -  6) =     10.16513  eV     1   --> A'             
     e(  7 -  7) =     12.36653  eV     1   --> A'             
     e(  8 -  8) =     12.70534  eV     1   --> A''            
     e(  9 -  9) =     14.87783  eV     1   --> A'             
     e( 10 - 10) =     15.81296  eV     1   --> A''            
     e( 11 - 11) =     19.23393  eV     1   --> A''            
     e( 12 - 12) =     20.39149  eV     1   --> A'             

 **************************************************************************

 **************************************************************************

                    xk=(  -0.84375,   0.65625,   0.00000  )

     Band symmetry, C_s (m)     point group:

     e(  1 -  1) =     -2.08867  eV     1   --> A'             
     e(  2 -  2) =     -1.21089  eV     1   --> A''            
     e(  3 -  3) =      1.86073  eV     1   --> A'             
     e(  4 -  4) =      3.20829  eV     1   --> A''            
     e(  5 -  5) =      7.89007  eV     1   --> A''            
     e(  6 -  6) =     10.15798  eV     1   --> A'             
     e(  7 -  7) =     12.44001  eV     1   --> A'             
     e(  8 -  8) =     12.79798  eV     1   --> A''            
     e(  9 -  9) =     14.80586  eV     1   --> A'             
     e( 10 - 10) =     15.72435  eV     1   --> A''            
     e( 11 - 11) =     19.31183  eV     1   --> A''            
     e( 12 - 12) =     20.45957  eV     1   --> A'             

 **************************************************************************

 **************************************************************************

                    xk=(  -0.83750,   0.66250,   0.00000  )

     Band symmetry, C_s (m)     point group:

     e(  1 -  1) =     -2.09902  eV     1   --> A'             
     e(  2 -  2) =     -1.20547  eV     1   --> A''            
     e(  3 -  3) =      1.85257  eV     1   --> A'             
     e(  4 -  4) =      3.25274  eV     1   --> A''            
     e(  5 -  5) =      7.81273  eV     1   --> A''            
     e(  6 -  6) =     10.15124  eV     1   --> A'             
     e(  7 -  7) =     12.51358  eV     1   --> A'             
     e(  8 -  8) =     12.89097  eV     1   --> A''            
     e(  9 -  9) =     14.73374  eV     1   --> A'             
     e( 10 - 10) =     15.63434  eV     1   --> A''            
     e( 11 - 11) =     19.39137  eV     1   --> A''            
     e( 12 - 12) =     20.52735  eV     1   --> A'             

 **************************************************************************

 **************************************************************************

                    xk=(  -0.83125,   0.66875,   0.00000  )

     Band symmetry, C_s (m)     point group:

     e(  1 -  1) =     -2.10865  eV     1   --> A'             
     e(  2 -  2) =     -1.20054  eV     1   --> A''            
     e(  3 -  3) =      1.84496  eV     1   --> A'             
     e(  4 -  4) =      3.29597  eV     1   --> A''            
[...]
     e( 10 - 10) =     14.41612  eV     1   --> A''            
     e( 11 - 11) =     20.03743  eV     1   --> A'             
     e( 12 - 12) =     20.44616  eV     1   --> A''            

 **************************************************************************

 **************************************************************************

                    xk=(  -0.71875,   0.71875,   0.06250  )

     Band symmetry, C_s (m)     point group:

     e(  1 -  1) =     -2.39341  eV     1   --> A'             
     e(  2 -  2) =     -0.96630  eV     1   --> A'             
     e(  3 -  3) =      1.77397  eV     1   --> A'             
     e(  4 -  4) =      3.73759  eV     1   --> A''            
     e(  5 -  5) =      7.37046  eV     1   --> A'             
     e(  6 -  6) =     10.75106  eV     1   --> A'             
     e(  7 -  7) =     12.78004  eV     1   --> A''            
     e(  8 -  8) =     13.02537  eV     1   --> A'             
     e(  9 -  9) =     14.23009  eV     1   --> A'             
     e( 10 - 10) =     14.39540  eV     1   --> A''            
     e( 11 - 11) =     20.24139  eV     1   --> A'             
     e( 12 - 12) =     20.52927  eV     1   --> A''            

 **************************************************************************

 **************************************************************************

                    xk=(  -0.72500,   0.72500,   0.05000  )

     Band symmetry, C_s (m)     point group:

     e(  1 -  1) =     -2.34004  eV     1   --> A'             
     e(  2 -  2) =     -1.01068  eV     1   --> A'             
     e(  3 -  3) =      1.76404  eV     1   --> A'             
     e(  4 -  4) =      3.71075  eV     1   --> A''            
     e(  5 -  5) =      7.33799  eV     1   --> A'             
     e(  6 -  6) =     10.61801  eV     1   --> A'             
     e(  7 -  7) =     12.91745  eV     1   --> A''            
     e(  8 -  8) =     13.20984  eV     1   --> A'             
     e(  9 -  9) =     14.18162  eV     1   --> A'             
     e( 10 - 10) =     14.38351  eV     1   --> A''            
     e( 11 - 11) =     20.39837  eV     1   --> A'             
     e( 12 - 12) =     20.60712  eV     1   --> A''            

 **************************************************************************

 **************************************************************************

                    xk=(  -0.73125,   0.73125,   0.03750  )

     Band symmetry, C_s (m)     point group:

     e(  1 -  1) =     -2.28923  eV     1   --> A'             
     e(  2 -  2) =     -1.05560  eV     1   --> A'             
     e(  3 -  3) =      1.76182  eV     1   --> A'             
     e(  4 -  4) =      3.68532  eV     1   --> A''            
     e(  5 -  5) =      7.30750  eV     1   --> A'             
     e(  6 -  6) =     10.48659  eV     1   --> A'             
     e(  7 -  7) =     13.04727  eV     1   --> A''            
     e(  8 -  8) =     13.39495  eV     1   --> A'             
     e(  9 -  9) =     14.13373  eV     1   --> A'             
     e( 10 - 10) =     14.38301  eV     1   --> A''            
     e( 11 - 11) =     20.47611  eV     1   --> A'             
     e( 12 - 12) =     20.67736  eV     1   --> A''            

 **************************************************************************

 **************************************************************************

                    xk=(  -0.73750,   0.73750,   0.02500  )

     Band symmetry, C_s (m)     point group:

     e(  1 -  1) =     -2.24241  eV     1   --> A'             
     e(  2 -  2) =     -1.09920  eV     1   --> A'             
     e(  3 -  3) =      1.76690  eV     1   --> A'             
     e(  4 -  4) =      3.66132  eV     1   --> A''            
     e(  5 -  5) =      7.27902  eV     1   --> A'             
     e(  6 -  6) =     10.35704  eV     1   --> A'             
     e(  7 -  7) =     13.16611  eV     1   --> A''            
     e(  8 -  8) =     13.57952  eV     1   --> A'             
     e(  9 -  9) =     14.08740  eV     1   --> A'             
     e( 10 - 10) =     14.39721  eV     1   --> A''            
     e( 11 - 11) =     20.49609  eV     1   --> A'             
     e( 12 - 12) =     20.73480  eV     1   --> A''            

 **************************************************************************

 **************************************************************************

                    xk=(  -0.74375,   0.74375,   0.01250  )

     Band symmetry, C_s (m)     point group:

     e(  1 -  1) =     -2.20152  eV     1   --> A'             
     e(  2 -  2) =     -1.13911  eV     1   --> A'             
     e(  3 -  3) =      1.77884  eV     1   --> A'             
     e(  4 -  4) =      3.63879  eV     1   --> A''            
     e(  5 -  5) =      7.25259  eV     1   --> A'             
     e(  6 -  6) =     10.22956  eV     1   --> A'             
     e(  7 -  7) =     13.27010  eV     1   --> A''            
     e(  8 -  8) =     13.75951  eV     1   --> A'             
     e(  9 -  9) =     14.04655  eV     1   --> A'             
     e( 10 - 10) =     14.42985  eV     1   --> A''            
     e( 11 - 11) =     20.48475  eV     1   --> A'             
     e( 12 - 12) =     20.76661  eV     1   --> A''            

 **************************************************************************

 **************************************************************************

                    xk=(  -0.75000,   0.75000,   0.00000  )

     point group C_2v (mm2) 
     there are  4 classes
     the character table:

       E     C2    s_v   s_v' 
A_1    1.00  1.00  1.00  1.00
A_2    1.00  1.00 -1.00 -1.00
B_1    1.00 -1.00  1.00 -1.00
B_2    1.00 -1.00 -1.00  1.00

     the symmetry operations in each class and the name of the first element:

     E        1
                                                                 
     C2       2
                                                                 
     s_v      4
                                                                 
     s_v'     3
                                                                 

     Band symmetry, C_2v (mm2)  point group:

     e(  1 -  1) =     -2.16898  eV     1   --> A_1  D_1  S_1  
     e(  2 -  2) =     -1.17245  eV     1   --> B_1  D_3  S_3  
     e(  3 -  3) =      1.79715  eV     1   --> A_1  D_1  S_1  
     e(  4 -  4) =      3.61777  eV     1   --> A_2  D_2  S_2  
     e(  5 -  5) =      7.22824  eV     1   --> B_1  D_3  S_3  
     e(  6 -  6) =     10.10429  eV     1   --> A_1  D_1  S_1  
     e(  7 -  7) =     13.35569  eV     1   --> B_2  D_4  S_4  
     e(  8 -  8) =     13.90199  eV     1   --> A_1  D_1  S_1  
     e(  9 -  9) =     14.04398  eV     1   --> B_1  D_3  S_3  
     e( 10 - 10) =     14.48439  eV     1   --> A_2  D_2  S_2  
     e( 11 - 11) =     20.45148  eV     1   --> B_1  D_3  S_3  
     e( 12 - 12) =     20.74393  eV     1   --> A_2  D_2  S_2  

 **************************************************************************

 **************************************************************************

                    xk=(  -1.00000,   0.25000,   0.25000  )

     zone border point and non-symmorphic group 
     symmetry decomposition not available

 **************************************************************************

 **************************************************************************

                    xk=(  -1.00000,   0.24375,   0.24375  )

     zone border point and non-symmorphic group 
     symmetry decomposition not available

 **************************************************************************

 **************************************************************************

                    xk=(  -1.00000,   0.23750,   0.23750  )

     zone border point and non-symmorphic group 
     symmetry decomposition not available

 **************************************************************************

 **************************************************************************

                    xk=(  -1.00000,   0.23125,   0.23125  )

     zone border point and non-symmorphic group 
     symmetry decomposition not available

 **************************************************************************

 **************************************************************************

                    xk=(  -1.00000,   0.22500,   0.22500  )

     zone border point and non-symmorphic group 
     symmetry decomposition not available

 **************************************************************************

 **************************************************************************

                    xk=(  -1.00000,   0.21875,   0.21875  )

     zone border point and non-symmorphic group 
     symmetry decomposition not available

 **************************************************************************

 **************************************************************************

                    xk=(  -1.00000,   0.21250,   0.21250  )

     zone border point and non-symmorphic group 
     symmetry decomposition not available

 **************************************************************************

 **************************************************************************

                    xk=(  -1.00000,   0.20625,   0.20625  )

     zone border point and non-symmorphic group 
     symmetry decomposition not available

 **************************************************************************

 **************************************************************************

                    xk=(  -1.00000,   0.20000,   0.20000  )

     zone border point and non-symmorphic group 
     symmetry decomposition not available

 **************************************************************************

 **************************************************************************

                    xk=(  -1.00000,   0.19375,   0.19375  )

     zone border point and non-symmorphic group 
     symmetry decomposition not available

 **************************************************************************

 **************************************************************************

                    xk=(  -1.00000,   0.18750,   0.18750  )

     zone border point and non-symmorphic group 
     symmetry decomposition not available

 **************************************************************************

 **************************************************************************

                    xk=(  -1.00000,   0.18125,   0.18125  )

     zone border point and non-symmorphic group 
     symmetry decomposition not available

 **************************************************************************

 **************************************************************************

                    xk=(  -1.00000,   0.17500,   0.17500  )

     zone border point and non-symmorphic group 
     symmetry decomposition not available

 **************************************************************************

 **************************************************************************

                    xk=(  -1.00000,   0.16875,   0.16875  )

     zone border point and non-symmorphic group 
     symmetry decomposition not available

 **************************************************************************

 **************************************************************************

                    xk=(  -1.00000,   0.16250,   0.16250  )

     zone border point and non-symmorphic group 
     symmetry decomposition not available

 **************************************************************************

 **************************************************************************

                    xk=(  -1.00000,   0.15625,   0.15625  )

     zone border point and non-symmorphic group 
     symmetry decomposition not available

 **************************************************************************

 **************************************************************************

                    xk=(  -1.00000,   0.15000,   0.15000  )

     zone border point and non-symmorphic group 
     symmetry decomposition not available

 **************************************************************************

 **************************************************************************

                    xk=(  -1.00000,   0.14375,   0.14375  )

     zone border point and non-symmorphic group 
     symmetry decomposition not available

 **************************************************************************

 **************************************************************************

                    xk=(  -1.00000,   0.13750,   0.13750  )

     zone border point and non-symmorphic group 
     symmetry decomposition not available

 **************************************************************************

 **************************************************************************

                    xk=(  -1.00000,   0.13125,   0.13125  )

     zone border point and non-symmorphic group 
     symmetry decomposition not available

 **************************************************************************

 **************************************************************************

                    xk=(  -1.00000,   0.12500,   0.12500  )

     zone border point and non-symmorphic group 
     symmetry decomposition not available

 **************************************************************************

 **************************************************************************

                    xk=(  -1.00000,   0.11875,   0.11875  )

     zone border point and non-symmorphic group 
     symmetry decomposition not available

 **************************************************************************

 **************************************************************************

                    xk=(  -1.00000,   0.11250,   0.11250  )

     zone border point and non-symmorphic group 
     symmetry decomposition not available

 **************************************************************************

 **************************************************************************

                    xk=(  -1.00000,   0.10625,   0.10625  )

     zone border point and non-symmorphic group 
     symmetry decomposition not available

 **************************************************************************

 **************************************************************************

                    xk=(  -1.00000,   0.10000,   0.10000  )

     zone border point and non-symmorphic group 
     symmetry decomposition not available

 **************************************************************************

 **************************************************************************

                    xk=(  -1.00000,   0.09375,   0.09375  )

     zone border point and non-symmorphic group 
     symmetry decomposition not available

 **************************************************************************

 **************************************************************************

                    xk=(  -1.00000,   0.08750,   0.08750  )

     zone border point and non-symmorphic group 
     symmetry decomposition not available

 **************************************************************************

 **************************************************************************

                    xk=(  -1.00000,   0.08125,   0.08125  )

     zone border point and non-symmorphic group 
     symmetry decomposition not available

 **************************************************************************

 **************************************************************************

                    xk=(  -1.00000,   0.07500,   0.07500  )

     zone border point and non-symmorphic group 
     symmetry decomposition not available

 **************************************************************************

 **************************************************************************

                    xk=(  -1.00000,   0.06875,   0.06875  )

     zone border point and non-symmorphic group 
     symmetry decomposition not available

 **************************************************************************

 **************************************************************************

                    xk=(  -1.00000,   0.06250,   0.06250  )

     zone border point and non-symmorphic group 
     symmetry decomposition not available

 **************************************************************************

 **************************************************************************

                    xk=(  -1.00000,   0.05625,   0.05625  )

     zone border point and non-symmorphic group 
     symmetry decomposition not available

 **************************************************************************

 **************************************************************************

                    xk=(  -1.00000,   0.05000,   0.05000  )

     zone border point and non-symmorphic group 
     symmetry decomposition not available

 **************************************************************************

 **************************************************************************

                    xk=(  -1.00000,   0.04375,   0.04375  )

     zone border point and non-symmorphic group 
     symmetry decomposition not available

 **************************************************************************

 **************************************************************************

                    xk=(  -1.00000,   0.03750,   0.03750  )

     zone border point and non-symmorphic group 
     symmetry decomposition not available

 **************************************************************************

 **************************************************************************

                    xk=(  -1.00000,   0.03125,   0.03125  )

     zone border point and non-symmorphic group 
     symmetry decomposition not available

 **************************************************************************

 **************************************************************************

                    xk=(  -1.00000,   0.02500,   0.02500  )

     zone border point and non-symmorphic group 
     symmetry decomposition not available

 **************************************************************************

 **************************************************************************

                    xk=(  -1.00000,   0.01875,   0.01875  )

     zone border point and non-symmorphic group 
     symmetry decomposition not available

 **************************************************************************

 **************************************************************************

                    xk=(  -1.00000,   0.01250,   0.01250  )

     zone border point and non-symmorphic group 
     symmetry decomposition not available

 **************************************************************************

 **************************************************************************

                    xk=(  -1.00000,   0.00625,   0.00625  )

     zone border point and non-symmorphic group 
     symmetry decomposition not available

 **************************************************************************

 **************************************************************************

                    xk=(  -1.00000,   0.00000,   0.00000  )

     zone border point and non-symmorphic group 
     symmetry decomposition not available

 **************************************************************************

     BANDS        :     20.47s CPU     21.06s WALL


   This run was terminated on:   1: 7:41   9Jan2026            

=------------------------------------------------------------------------------=
   JOB DONE.
=------------------------------------------------------------------------------=
