
     Program PWSCF v.7.5 starts on  9Jan2026 at  0:52:58 

     This program is part of the open-source Quantum ESPRESSO suite
     for quantum simulation of materials; please cite
         "P. Giannozzi et al., J. Phys.:Condens. Matter 21 395502 (2009);
         "P. Giannozzi et al., J. Phys.:Condens. Matter 29 465901 (2017);
         "P. Giannozzi et al., J. Chem. Phys. 152 154105 (2020);
          URL http://www.quantum-espresso.org", 
     in publications or presentations arising from this work. More details at
     http://www.quantum-espresso.org/quote

     Serial version
     3869 MiB available memory on the printing compute node when the environment starts

     Waiting for input...
     Reading input from standard input

     Current dimensions of program PWSCF are:
     Max number of different atomic species (ntypx) = 10
     Max number of k-points (npk) =  40000
     Max angular momentum in pseudopotentials (lmaxx) =  4


     G-vector sticks info
     --------------------
     sticks:   dense  smooth     PW     G-vecs:    dense   smooth      PW
     Sum        1165    1165    349                26565    26565    4285

     Using Slab Decomposition



     bravais-lattice index     =            2
     lattice parameter (alat)  =      10.3404  a.u.
     unit-cell volume          =     276.4093 (a.u.)^3
     number of atoms/cell      =            2
     number of atomic types    =            1
     number of electrons       =         8.00
     number of Kohn-Sham states=            4
     kinetic-energy cutoff     =      80.0000  Ry
     charge density cutoff     =     320.0000  Ry
     scf convergence threshold =      1.0E-06
     mixing beta               =       0.7000
     number of iterations used =            8  plain     mixing
     Exchange-correlation= PBE
                           (   1   4   3   4   0   0   0)

     celldm(1)=  10.340405  celldm(2)=   0.000000  celldm(3)=   0.000000
     celldm(4)=   0.000000  celldm(5)=   0.000000  celldm(6)=   0.000000

     crystal axes: (cart. coord. in units of alat)
               a(1) = (  -0.500000   0.000000   0.500000 )  
               a(2) = (   0.000000   0.500000   0.500000 )  
               a(3) = (  -0.500000   0.500000   0.000000 )  

     reciprocal axes: (cart. coord. in units 2 pi/alat)
               b(1) = ( -1.000000 -1.000000  1.000000 )  
               b(2) = (  1.000000  1.000000  1.000000 )  
               b(3) = ( -1.000000  1.000000 -1.000000 )  


     PseudoPot. # 1 for Si read from file:
     ./PSEUDO/Si_ONCV_PBE_sr.upf
     MD5 check sum: e543d271109d17c80368dfa7c482276d
     Pseudo is Norm-conserving + core correction, Zval =  4.0
     Generated using ONCVPSP code by D. R. Hamann
     Using radial grid of 1510 points,  6 beta functions with: 
                l(1) =   0
                l(2) =   0
                l(3) =   1
                l(4) =   1
                l(5) =   2
                l(6) =   2

     atomic species   valence    mass     pseudopotential
     Si                4.00    28.08550     Si( 1.00)

     48 Sym. Ops., with inversion, found (24 have fractional translation)



   Cartesian axes

     site n.     atom                  positions (alat units)
         1        Si     tau(   1) = (   0.0000000   0.0000000   0.0000000  )
         2        Si     tau(   2) = (  -0.2500000   0.2500000   0.2500000  )

     number of k points=    47
                       cart. coord. in units 2pi/alat
        k(    1) = (   0.0000000   0.0000000   0.0000000), wk =   0.0020000
        k(    2) = (  -0.1000000   0.1000000  -0.1000000), wk =   0.0160000
        k(    3) = (  -0.2000000   0.2000000  -0.2000000), wk =   0.0160000
        k(    4) = (  -0.3000000   0.3000000  -0.3000000), wk =   0.0160000
        k(    5) = (  -0.4000000   0.4000000  -0.4000000), wk =   0.0160000
        k(    6) = (   0.5000000  -0.5000000   0.5000000), wk =   0.0080000
        k(    7) = (   0.0000000   0.2000000   0.0000000), wk =   0.0120000
        k(    8) = (  -0.1000000   0.3000000  -0.1000000), wk =   0.0480000
        k(    9) = (  -0.2000000   0.4000000  -0.2000000), wk =   0.0480000
        k(   10) = (  -0.3000000   0.5000000  -0.3000000), wk =   0.0480000
        k(   11) = (   0.6000000  -0.4000000   0.6000000), wk =   0.0480000
        k(   12) = (   0.5000000  -0.3000000   0.5000000), wk =   0.0480000
        k(   13) = (   0.4000000  -0.2000000   0.4000000), wk =   0.0480000
        k(   14) = (   0.3000000  -0.1000000   0.3000000), wk =   0.0480000
        k(   15) = (   0.2000000   0.0000000   0.2000000), wk =   0.0240000
        k(   16) = (   0.0000000   0.4000000   0.0000000), wk =   0.0120000
        k(   17) = (  -0.1000000   0.5000000  -0.1000000), wk =   0.0480000
        k(   18) = (  -0.2000000   0.6000000  -0.2000000), wk =   0.0480000
        k(   19) = (   0.7000000  -0.3000000   0.7000000), wk =   0.0480000
        k(   20) = (   0.6000000  -0.2000000   0.6000000), wk =   0.0480000
        k(   21) = (   0.5000000  -0.1000000   0.5000000), wk =   0.0480000
        k(   22) = (   0.4000000   0.0000000   0.4000000), wk =   0.0240000
        k(   23) = (   0.0000000   0.6000000   0.0000000), wk =   0.0120000
        k(   24) = (  -0.1000000   0.7000000  -0.1000000), wk =   0.0480000
        k(   25) = (   0.8000000  -0.2000000   0.8000000), wk =   0.0480000
        k(   26) = (   0.7000000  -0.1000000   0.7000000), wk =   0.0480000
        k(   27) = (   0.6000000  -0.0000000   0.6000000), wk =   0.0240000
        k(   28) = (   0.0000000   0.8000000   0.0000000), wk =   0.0120000
        k(   29) = (   0.9000000  -0.1000000   0.9000000), wk =   0.0480000
        k(   30) = (   0.8000000   0.0000000   0.8000000), wk =   0.0240000
        k(   31) = (   0.0000000  -1.0000000   0.0000000), wk =   0.0060000
        k(   32) = (  -0.2000000   0.4000000   0.0000000), wk =   0.0480000
        k(   33) = (  -0.3000000   0.5000000  -0.1000000), wk =   0.0960000
        k(   34) = (   0.6000000  -0.4000000   0.8000000), wk =   0.0960000
        k(   35) = (   0.5000000  -0.3000000   0.7000000), wk =   0.0480000
        k(   36) = (  -0.2000000   0.6000000   0.0000000), wk =   0.0480000
        k(   37) = (   0.7000000  -0.3000000   0.9000000), wk =   0.0960000
        k(   38) = (   0.6000000  -0.2000000   0.8000000), wk =   0.0960000
        k(   39) = (   0.5000000  -0.1000000   0.7000000), wk =   0.0960000
        k(   40) = (   0.4000000   0.0000000   0.6000000), wk =   0.0480000
        k(   41) = (   0.8000000  -0.2000000   1.0000000), wk =   0.0480000
        k(   42) = (   0.7000000  -0.1000000   0.9000000), wk =   0.0960000
        k(   43) = (   0.6000000   0.0000000   0.8000000), wk =   0.0480000
        k(   44) = (  -0.2000000  -1.0000000   0.0000000), wk =   0.0240000
        k(   45) = (   0.6000000  -0.2000000   1.0000000), wk =   0.0480000
        k(   46) = (   0.5000000  -0.1000000   0.9000000), wk =   0.0480000
        k(   47) = (  -0.4000000  -1.0000000   0.0000000), wk =   0.0240000

     Dense  grid:    26565 G-vectors     FFT dimensions: (  48,  48,  48)

     Estimated max dynamical RAM per process >      32.52 MB

     Initial potential from superposition of free atoms

     starting charge       7.9988, renormalised to       8.0000
     Starting wfcs are    8 randomized atomic wfcs

     total cpu time spent up to now is        1.6 secs

     Self-consistent Calculation

     iteration #  1     ecut=    80.00 Ry     beta= 0.70
     Davidson diagonalization with overlap
     ethr =  1.00E-02,  avg # of iterations =  2.0

     Threshold (ethr) on eigenvalues was too large:
     Diagonalizing with lowered threshold

     Davidson diagonalization with overlap
     ethr =  5.48E-04,  avg # of iterations =  2.1

     total cpu time spent up to now is        4.0 secs

     total energy              =     -16.92312369 Ry
     estimated scf accuracy    <       0.05175292 Ry

     iteration #  2     ecut=    80.00 Ry     beta= 0.70
     Davidson diagonalization with overlap
     ethr =  6.47E-04,  avg # of iterations =  1.0

     total cpu time spent up to now is        4.8 secs

     total energy              =     -16.92456996 Ry
     estimated scf accuracy    <       0.00288540 Ry

     iteration #  3     ecut=    80.00 Ry     beta= 0.70
     Davidson diagonalization with overlap
     ethr =  3.61E-05,  avg # of iterations =  2.2

     total cpu time spent up to now is        5.9 secs

     total energy              =     -16.92515333 Ry
     estimated scf accuracy    <       0.00005941 Ry

     iteration #  4     ecut=    80.00 Ry     beta= 0.70
     Davidson diagonalization with overlap
     ethr =  7.43E-07,  avg # of iterations =  4.7

     total cpu time spent up to now is        7.4 secs

     End of self-consistent calculation

          k = 0.0000 0.0000 0.0000 (  3383 PWs)   bands (ev):

    -5.8148   5.9945   5.9945   5.9945

          k =-0.1000 0.1000-0.1000 (  3362 PWs)   bands (ev):

    -5.6865   4.8480   5.8001   5.8001

          k =-0.2000 0.2000-0.2000 (  3347 PWs)   bands (ev):

    -5.3078   3.0078   5.4256   5.4256

          k =-0.3000 0.3000-0.3000 (  3359 PWs)   bands (ev):

    -4.7058   1.2515   5.0950   5.0950

          k =-0.4000 0.4000-0.4000 (  3347 PWs)   bands (ev):

    -3.9778  -0.1945   4.8848   4.8848

          k = 0.5000-0.5000 0.5000 (  3316 PWs)   bands (ev):

    -3.5416  -0.8734   4.8138   4.8138

          k = 0.0000 0.2000 0.0000 (  3355 PWs)   bands (ev):

    -5.6434   5.0322   5.4321   5.4321

          k =-0.1000 0.3000-0.1000 (  3342 PWs)   bands (ev):

    -5.3470   3.5468   5.0053   5.1618

          k =-0.2000 0.4000-0.2000 (  3349 PWs)   bands (ev):

    -4.8148   1.8179   4.6907   4.7334

          k =-0.3000 0.5000-0.3000 (  3333 PWs)   bands (ev):

    -4.1080   0.2761   4.3282   4.5440

          k = 0.6000-0.4000 0.6000 (  3326 PWs)   bands (ev):

    -3.4869  -0.7347   4.0439   4.5744

          k = 0.5000-0.3000 0.5000 (  3344 PWs)   bands (ev):

    -3.6483  -0.4931   3.9203   4.7691

          k = 0.4000-0.2000 0.4000 (  3359 PWs)   bands (ev):

    -4.3572   0.7596   3.9830   5.0970

          k = 0.3000-0.1000 0.3000 (  3356 PWs)   bands (ev):

    -5.0179   2.3768   4.2589   5.4959

          k = 0.2000 0.0000 0.2000 (  3347 PWs)   bands (ev):

    -5.4742   3.9613   4.8624   5.8182

          k = 0.0000 0.4000 0.0000 (  3335 PWs)   bands (ev):

    -5.1331   3.3507   4.5390   4.5390

          k =-0.1000 0.5000-0.1000 (  3354 PWs)   bands (ev):

    -4.6769   2.1301   4.0359   4.1966

          k =-0.2000 0.6000-0.2000 (  3361 PWs)   bands (ev):

    -4.0166   0.7263   3.4160   4.0386

          k = 0.7000-0.3000 0.7000 (  3335 PWs)   bands (ev):

    -3.3054  -0.4274   2.9150   4.0804

          k = 0.6000-0.2000 0.6000 (  3323 PWs)   bands (ev):

    -3.1581  -0.6287   2.6244   4.3128

          k = 0.5000-0.1000 0.5000 (  3345 PWs)   bands (ev):

    -3.7929   0.3308   2.6105   4.7013

          k = 0.4000 0.0000 0.4000 (  3365 PWs)   bands (ev):

    -4.4940   1.5420   3.0614   5.1615

          k = 0.0000 0.6000 0.0000 (  3355 PWs)   bands (ev):

    -4.2965   1.5824   3.8111   3.8111

          k =-0.1000 0.7000-0.1000 (  3354 PWs)   bands (ev):

    -3.6965   0.5952   3.2008   3.6095

          k = 0.8000-0.2000 0.8000 (  3330 PWs)   bands (ev):

    -2.9644  -0.3885   2.3924   3.6152

          k = 0.7000-0.1000 0.7000 (  3324 PWs)   bands (ev):

    -2.5597  -0.8491   1.8528   3.8259

          k = 0.6000-0.0000 0.6000 (  3324 PWs)   bands (ev):

    -3.0840  -0.2725   1.8285   4.2136

          k = 0.0000 0.8000 0.0000 (  3362 PWs)   bands (ev):

    -3.1571  -0.1482   3.3542   3.3542

          k = 0.9000-0.1000 0.9000 (  3325 PWs)   bands (ev):

    -2.4440  -0.9729   2.7867   3.3062

          k = 0.8000 0.0000 0.8000 (  3320 PWs)   bands (ev):

    -1.9848  -1.3818   2.0277   3.4699

          k = 0.0000-1.0000 0.0000 (  3306 PWs)   bands (ev):

    -1.7544  -1.7544   3.1993   3.1993

          k =-0.2000 0.4000 0.0000 (  3356 PWs)   bands (ev):

    -4.9714   2.6259   3.9609   5.0369

          k =-0.3000 0.5000-0.1000 (  3348 PWs)   bands (ev):

    -4.3732   1.2455   3.3769   4.6715

          k = 0.6000-0.4000 0.8000 (  3349 PWs)   bands (ev):

    -3.6450  -0.0848   3.1424   4.3311

          k = 0.5000-0.3000 0.7000 (  3330 PWs)   bands (ev):

    -3.2010  -0.7427   3.0808   4.1974

          k =-0.2000 0.6000 0.0000 (  3345 PWs)   bands (ev):

    -4.1504   1.2374   3.2486   3.9524

          k = 0.7000-0.3000 0.9000 (  3344 PWs)   bands (ev):

    -3.4468   0.1590   2.6405   3.6338

          k = 0.6000-0.2000 0.8000 (  3327 PWs)   bands (ev):

    -2.8157  -0.6787   2.2386   3.5796

          k = 0.5000-0.1000 0.7000 (  3330 PWs)   bands (ev):

    -3.0115  -0.4269   2.0946   3.8131

          k = 0.4000 0.0000 0.6000 (  3339 PWs)   bands (ev):

    -3.7279   0.5001   2.3926   4.2416

          k = 0.8000-0.2000 1.0000 (  3334 PWs)   bands (ev):

    -3.0425  -0.2334   2.8464   3.1673

          k = 0.7000-0.1000 0.9000 (  3334 PWs)   bands (ev):

    -2.3229  -0.9928   2.1664   3.0783

          k = 0.6000 0.0000 0.8000 (  3321 PWs)   bands (ev):

    -2.3325  -0.9630   1.7621   3.3414

          k =-0.2000-1.0000 0.0000 (  3336 PWs)   bands (ev):

    -1.7044  -1.7044   2.8056   2.8056

          k = 0.6000-0.2000 1.0000 (  3325 PWs)   bands (ev):

    -2.7320  -0.5248   2.1074   3.0732

          k = 0.5000-0.1000 0.9000 (  3326 PWs)   bands (ev):

    -2.2348  -1.0232   1.9546   2.8288

          k =-0.4000-1.0000 0.0000 (  3342 PWs)   bands (ev):

    -1.6167  -1.6167   2.3103   2.3103

     highest occupied level (ev):     5.9945

!    total energy              =     -16.92523221 Ry
     estimated scf accuracy    <       0.00000023 Ry

     The total energy is the sum of the following terms:
     one-electron contribution =       4.78822726 Ry
     hartree contribution      =       1.11565102 Ry
     xc contribution           =      -6.15882186 Ry
     ewald contribution        =     -16.67028863 Ry

     convergence has been achieved in   4 iterations

     Forces acting on atoms (cartesian axes, Ry/au):

     atom    1 type  1   force =    -0.00000000   -0.00000000    0.00000000
     atom    2 type  1   force =     0.00000000    0.00000000    0.00000000

     Total force =     0.000000     Total SCF correction =     0.000000


     Computing stress (Cartesian axis) and pressure

          total   stress  (Ry/bohr**3)                   (kbar)     P=       -1.18
  -0.00000803  -0.00000000  -0.00000000           -1.18       -0.00       -0.00
  -0.00000000  -0.00000803   0.00000000           -0.00       -1.18        0.00
  -0.00000000   0.00000000  -0.00000803           -0.00        0.00       -1.18


     Writing all to output data dir ./tmp/si.cd.save/ :
     XML data file, charge density, pseudopotentials, collected wavefunctions

     init_run     :      1.56s CPU      1.61s WALL (       1 calls)
     electrons    :      5.55s CPU      5.78s WALL (       1 calls)
     forces       :      0.15s CPU      0.16s WALL (       1 calls)
     stress       :      0.66s CPU      0.69s WALL (       1 calls)

     Called by init_run:
     wfcinit      :      1.31s CPU      1.33s WALL (       1 calls)
     potinit      :      0.10s CPU      0.12s WALL (       1 calls)
     hinit0       :      0.11s CPU      0.12s WALL (       1 calls)

     Called by electrons:
     c_bands      :      4.71s CPU      4.89s WALL (       5 calls)
     sum_band     :      0.71s CPU      0.74s WALL (       5 calls)
     v_of_rho     :      0.17s CPU      0.21s WALL (       5 calls)
     mix_rho      :      0.01s CPU      0.01s WALL (       5 calls)

     Called by c_bands:
     init_us_2    :      0.31s CPU      0.34s WALL (     611 calls)
     cegterg      :      4.21s CPU      4.37s WALL (     235 calls)

     Called by *egterg:
     cdiaghg      :      0.01s CPU      0.01s WALL (     749 calls)
     h_psi        :      5.06s CPU      5.22s WALL (     843 calls)
     g_psi        :      0.02s CPU      0.02s WALL (     561 calls)

     Called by h_psi:
     h_psi:calbec :      0.36s CPU      0.37s WALL (     843 calls)
     vloc_psi     :      4.35s CPU      4.49s WALL (     843 calls)
                                        0.00s GPU  (     843 calls)
     add_vuspsi   :      0.32s CPU      0.34s WALL (     843 calls)

     General routines
     calbec       :      0.64s CPU      0.67s WALL (    1642 calls)
     fft          :      0.11s CPU      0.11s WALL (      75 calls)
     ffts         :      0.01s CPU      0.01s WALL (       5 calls)
     fftw         :      4.43s CPU      4.59s WALL (    7240 calls)


     PWSCF        :      7.95s CPU      8.30s WALL


   This run was terminated on:   0:53: 6   9Jan2026            

=------------------------------------------------------------------------------=
   JOB DONE.
=------------------------------------------------------------------------------=
