
     Program PWSCF v.7.5 starts on 20Dec2025 at 19:53:27 

     This program is part of the open-source Quantum ESPRESSO suite
     for quantum simulation of materials; please cite
         "P. Giannozzi et al., J. Phys.:Condens. Matter 21 395502 (2009);
         "P. Giannozzi et al., J. Phys.:Condens. Matter 29 465901 (2017);
         "P. Giannozzi et al., J. Chem. Phys. 152 154105 (2020);
          URL http://www.quantum-espresso.org", 
     in publications or presentations arising from this work. More details at
     http://www.quantum-espresso.org/quote

     Serial version
     1797 MiB available memory on the printing compute node when the environment starts

     Waiting for input...
     Reading input from standard input

     Current dimensions of program PWSCF are:
     Max number of different atomic species (ntypx) = 10
     Max number of k-points (npk) =  40000
     Max angular momentum in pseudopotentials (lmaxx) =  4


     G-vector sticks info
     --------------------
     sticks:   dense  smooth     PW     G-vecs:    dense   smooth      PW
     Sum         673     673    211                11647    11647    2085

     Using Slab Decomposition



     bravais-lattice index     =            2
     lattice parameter (alat)  =       7.0186  a.u.
     unit-cell volume          =      86.4354 (a.u.)^3
     number of atoms/cell      =            2
     number of atomic types    =            2
     number of electrons       =         9.00
     number of Kohn-Sham states=            9
     kinetic-energy cutoff     =     100.0000  Ry
     charge density cutoff     =     400.0000  Ry
     scf convergence threshold =      1.0E-06
     mixing beta               =       0.7000
     number of iterations used =            8  plain     mixing
     energy convergence thresh.=      1.0E-04
     force convergence thresh. =      1.0E-03
     press convergence thresh. =      5.0E-01
     Exchange-correlation= PBE
                           (   1   4   3   4   0   0   0)
     nstep                     =           50


     celldm(1)=   7.018600  celldm(2)=   0.000000  celldm(3)=   0.000000
     celldm(4)=   0.000000  celldm(5)=   0.000000  celldm(6)=   0.000000

     crystal axes: (cart. coord. in units of alat)
               a(1) = (  -0.500000   0.000000   0.500000 )  
               a(2) = (   0.000000   0.500000   0.500000 )  
               a(3) = (  -0.500000   0.500000   0.000000 )  

     reciprocal axes: (cart. coord. in units 2 pi/alat)
               b(1) = ( -1.000000 -1.000000  1.000000 )  
               b(2) = (  1.000000  1.000000  1.000000 )  
               b(3) = ( -1.000000  1.000000 -1.000000 )  


     PseudoPot. # 1 for Be read from file:
     ./PSEUDO/Be_ONCV_PBE_sr.upf
     MD5 check sum: f32703449d889b1d166f7ecd0677d20c
     Pseudo is Norm-conserving, Zval =  4.0
     Generated using ONCVPSP code by D. R. Hamann
     Using radial grid of 1358 points,  4 beta functions with: 
                l(1) =   0
                l(2) =   0
                l(3) =   1
                l(4) =   1

     PseudoPot. # 2 for N  read from file:
     ./PSEUDO/N_ONCV_PBE_sr.upf
     MD5 check sum: 18c6af81dac9c5a2d6d52ed11cf7bfee
     Pseudo is Norm-conserving + core correction, Zval =  5.0
     Generated using ONCVPSP code by D. R. Hamann
     Using radial grid of 1058 points,  4 beta functions with: 
                l(1) =   0
                l(2) =   0
                l(3) =   1
                l(4) =   1

     atomic species   valence    mass     pseudopotential
     Be                4.00     9.01218     Be( 1.00)
     N                 5.00    14.00670     N ( 1.00)

     48 Sym. Ops., with inversion, found



   Cartesian axes

     site n.     atom                  positions (alat units)
         1        Be     tau(   1) = (   0.0000000   0.0000000   0.0000000  )
         2        N      tau(   2) = (  -0.5000000   0.5000000   0.5000000  )

     number of k points=    47  Marzari-Vanderbilt smearing, width (Ry)=  0.0200
                       cart. coord. in units 2pi/alat
        k(    1) = (   0.0000000   0.0000000   0.0000000), wk =   0.0020000
        k(    2) = (  -0.1000000   0.1000000  -0.1000000), wk =   0.0160000
        k(    3) = (  -0.2000000   0.2000000  -0.2000000), wk =   0.0160000
        k(    4) = (  -0.3000000   0.3000000  -0.3000000), wk =   0.0160000
        k(    5) = (  -0.4000000   0.4000000  -0.4000000), wk =   0.0160000
        k(    6) = (   0.5000000  -0.5000000   0.5000000), wk =   0.0080000
        k(    7) = (   0.0000000   0.2000000   0.0000000), wk =   0.0120000
        k(    8) = (  -0.1000000   0.3000000  -0.1000000), wk =   0.0480000
        k(    9) = (  -0.2000000   0.4000000  -0.2000000), wk =   0.0480000
        k(   10) = (  -0.3000000   0.5000000  -0.3000000), wk =   0.0480000
        k(   11) = (   0.6000000  -0.4000000   0.6000000), wk =   0.0480000
        k(   12) = (   0.5000000  -0.3000000   0.5000000), wk =   0.0480000
        k(   13) = (   0.4000000  -0.2000000   0.4000000), wk =   0.0480000
        k(   14) = (   0.3000000  -0.1000000   0.3000000), wk =   0.0480000
        k(   15) = (   0.2000000   0.0000000   0.2000000), wk =   0.0240000
        k(   16) = (   0.0000000   0.4000000   0.0000000), wk =   0.0120000
        k(   17) = (  -0.1000000   0.5000000  -0.1000000), wk =   0.0480000
        k(   18) = (  -0.2000000   0.6000000  -0.2000000), wk =   0.0480000
        k(   19) = (   0.7000000  -0.3000000   0.7000000), wk =   0.0480000
        k(   20) = (   0.6000000  -0.2000000   0.6000000), wk =   0.0480000
        k(   21) = (   0.5000000  -0.1000000   0.5000000), wk =   0.0480000
        k(   22) = (   0.4000000   0.0000000   0.4000000), wk =   0.0240000
        k(   23) = (   0.0000000   0.6000000   0.0000000), wk =   0.0120000
        k(   24) = (  -0.1000000   0.7000000  -0.1000000), wk =   0.0480000
        k(   25) = (   0.8000000  -0.2000000   0.8000000), wk =   0.0480000
        k(   26) = (   0.7000000  -0.1000000   0.7000000), wk =   0.0480000
        k(   27) = (   0.6000000  -0.0000000   0.6000000), wk =   0.0240000
        k(   28) = (   0.0000000   0.8000000   0.0000000), wk =   0.0120000
        k(   29) = (   0.9000000  -0.1000000   0.9000000), wk =   0.0480000
        k(   30) = (   0.8000000   0.0000000   0.8000000), wk =   0.0240000
        k(   31) = (   0.0000000  -1.0000000   0.0000000), wk =   0.0060000
        k(   32) = (  -0.2000000   0.4000000   0.0000000), wk =   0.0480000
        k(   33) = (  -0.3000000   0.5000000  -0.1000000), wk =   0.0960000
        k(   34) = (   0.6000000  -0.4000000   0.8000000), wk =   0.0960000
        k(   35) = (   0.5000000  -0.3000000   0.7000000), wk =   0.0480000
        k(   36) = (  -0.2000000   0.6000000   0.0000000), wk =   0.0480000
        k(   37) = (   0.7000000  -0.3000000   0.9000000), wk =   0.0960000
        k(   38) = (   0.6000000  -0.2000000   0.8000000), wk =   0.0960000
        k(   39) = (   0.5000000  -0.1000000   0.7000000), wk =   0.0960000
        k(   40) = (   0.4000000   0.0000000   0.6000000), wk =   0.0480000
        k(   41) = (   0.8000000  -0.2000000   1.0000000), wk =   0.0480000
        k(   42) = (   0.7000000  -0.1000000   0.9000000), wk =   0.0960000
        k(   43) = (   0.6000000   0.0000000   0.8000000), wk =   0.0480000
        k(   44) = (  -0.2000000  -1.0000000   0.0000000), wk =   0.0240000
        k(   45) = (   0.6000000  -0.2000000   1.0000000), wk =   0.0480000
        k(   46) = (   0.5000000  -0.1000000   0.9000000), wk =   0.0480000
        k(   47) = (  -0.4000000  -1.0000000   0.0000000), wk =   0.0240000

     Dense  grid:    11647 G-vectors     FFT dimensions: (  32,  32,  32)

     Estimated max dynamical RAM per process >      20.08 MB

     Initial potential from superposition of free atoms

     starting charge       8.9998, renormalised to       9.0000
     Starting wfcs are    6 randomized atomic wfcs +    3 random wfcs

     total cpu time spent up to now is        1.0 secs

     Self-consistent Calculation

     iteration #  1     ecut=   100.00 Ry     beta= 0.70
     Davidson diagonalization with overlap
     ethr =  1.00E-02,  avg # of iterations =  4.5

     Threshold (ethr) on eigenvalues was too large:
     Diagonalizing with lowered threshold

     Davidson diagonalization with overlap
     ethr =  7.94E-04,  avg # of iterations =  1.1

     total cpu time spent up to now is        2.7 secs

     total energy              =     -48.62697660 Ry
     estimated scf accuracy    <       0.07147791 Ry

     iteration #  2     ecut=   100.00 Ry     beta= 0.70
     Davidson diagonalization with overlap
     ethr =  7.94E-04,  avg # of iterations =  1.9

     total cpu time spent up to now is        3.3 secs

     total energy              =     -48.64631769 Ry
     estimated scf accuracy    <       0.01908050 Ry

     iteration #  3     ecut=   100.00 Ry     beta= 0.70
     Davidson diagonalization with overlap
     ethr =  2.12E-04,  avg # of iterations =  1.5

     total cpu time spent up to now is        3.8 secs

     total energy              =     -48.65007635 Ry
     estimated scf accuracy    <       0.00020747 Ry

     iteration #  4     ecut=   100.00 Ry     beta= 0.70
     Davidson diagonalization with overlap
     ethr =  2.31E-06,  avg # of iterations =  2.3

     total cpu time spent up to now is        4.4 secs

     total energy              =     -48.65011071 Ry
     estimated scf accuracy    <       0.00001012 Ry

     iteration #  5     ecut=   100.00 Ry     beta= 0.70
     Davidson diagonalization with overlap
     ethr =  1.12E-07,  avg # of iterations =  1.2

     total cpu time spent up to now is        4.8 secs

     End of self-consistent calculation

          k = 0.0000 0.0000 0.0000 (  1459 PWs)   bands (ev):

   -89.2641  -8.1827  10.3496  10.3496  10.3496  20.6097  26.8166  26.8166
    26.8166

          k =-0.1000 0.1000-0.1000 (  1441 PWs)   bands (ev):

   -89.2638  -7.9717   9.5106  10.2986  10.2986  20.8748  25.6739  25.7055
    25.7055

          k =-0.2000 0.2000-0.2000 (  1435 PWs)   bands (ev):

   -89.2630  -7.3574   7.4863  10.1793  10.1793  20.6927  23.7647  23.7647
    25.0141

          k =-0.3000 0.3000-0.3000 (  1447 PWs)   bands (ev):

   -89.2620  -6.4159   5.0915  10.0589  10.0589  19.6858  22.0393  22.0393
    25.9117

          k =-0.4000 0.4000-0.4000 (  1471 PWs)   bands (ev):

   -89.2612  -5.3781   3.0284   9.9825   9.9825  18.8843  20.8966  20.8966
    26.9148

          k = 0.5000-0.5000 0.5000 (  1476 PWs)   bands (ev):

   -89.2609  -4.8495   2.1351   9.9583   9.9583  18.6038  20.4984  20.4984
    27.3052

          k = 0.0000 0.2000 0.0000 (  1443 PWs)   bands (ev):

   -89.2637  -7.9002   9.8607   9.9468   9.9468  21.0888  24.6582  26.1250
    26.1250

          k =-0.1000 0.3000-0.1000 (  1440 PWs)   bands (ev):

   -89.2631  -7.4157   8.2236   9.5930  10.0128  21.3755  22.9745  24.7001
    25.2101

          k =-0.2000 0.4000-0.2000 (  1451 PWs)   bands (ev):

   -89.2622  -6.5704   5.9457   9.3707   9.8227  20.6901  21.4573  23.6727
    25.1149

          k =-0.3000 0.5000-0.3000 (  1452 PWs)   bands (ev):

   -89.2613  -5.5247   3.7448   9.3568   9.4506  19.8528  20.5641  22.2233
    26.3163

          k = 0.6000-0.4000 0.6000 (  1457 PWs)   bands (ev):

   -89.2608  -4.7395   2.3839   9.0568   9.5545  19.3159  20.5263  21.2262
    27.0352

          k = 0.5000-0.3000 0.5000 (  1465 PWs)   bands (ev):

   -89.2609  -4.9289   2.7001   8.7833   9.8944  19.3057  20.8687  21.1417
    26.8729

          k = 0.4000-0.2000 0.4000 (  1451 PWs)   bands (ev):

   -89.2615  -5.8836   4.4578   8.7244  10.2503  19.8492  21.2572  22.2397
    25.9322

          k = 0.3000-0.1000 0.3000 (  1460 PWs)   bands (ev):

   -89.2625  -6.8916   6.7454   8.9260  10.4853  20.7578  22.3974  23.5751
    24.8440

          k = 0.2000 0.0000 0.2000 (  1442 PWs)   bands (ev):

   -89.2634  -7.6245   8.6933   9.4836  10.5056  21.1421  24.0979  24.7325
    25.0042

          k = 0.0000 0.4000 0.0000 (  1463 PWs)   bands (ev):

   -89.2627  -7.0607   8.3520   8.9921   8.9921  21.4746  22.4790  24.0331
    25.9200

          k =-0.1000 0.5000-0.1000 (  1455 PWs)   bands (ev):

   -89.2619  -6.3267   6.5915   8.5775   8.6709  20.4505  22.4248  23.6159
    25.4329

          k =-0.2000 0.6000-0.2000 (  1454 PWs)   bands (ev):

   -89.2611  -5.3291   4.5496   8.0167   8.4590  19.8421  21.7690  24.2445
    24.8583

          k = 0.7000-0.3000 0.7000 (  1461 PWs)   bands (ev):

   -89.2605  -4.4074   3.0029   7.2668   8.6677  19.4770  21.8141  23.0019
    26.1200

          k = 0.6000-0.2000 0.6000 (  1467 PWs)   bands (ev):

   -89.2605  -4.2626   2.8329   6.7165   9.1589  19.4570  22.0410  22.3457
    26.3146

          k = 0.5000-0.1000 0.5000 (  1459 PWs)   bands (ev):

   -89.2609  -5.0485   4.2008   6.5352   9.7949  19.8557  21.5324  23.1182
    25.4417

          k = 0.4000 0.0000 0.4000 (  1444 PWs)   bands (ev):

   -89.2617  -6.0701   5.9318   7.1195  10.3288  20.5215  21.6158  23.6259
    24.5462

          k = 0.0000 0.6000 0.0000 (  1455 PWs)   bands (ev):

   -89.2613  -5.7057   5.9468   7.9661   7.9661  19.5252  21.9302  24.2093
    26.3995

          k =-0.1000 0.7000-0.1000 (  1455 PWs)   bands (ev):

   -89.2607  -4.7972   4.4683   7.2517   7.6834  19.1512  21.6893  24.7130
    26.1323

          k = 0.8000-0.2000 0.8000 (  1471 PWs)   bands (ev):

   -89.2602  -3.8706   3.2719   6.1072   7.7845  19.0672  22.6069  25.0773
    25.2092

          k = 0.7000-0.1000 0.7000 (  1464 PWs)   bands (ev):

   -89.2601  -3.5329   3.1275   5.0515   8.2555  19.1269  23.7508  23.7735
    25.5116

          k = 0.6000-0.0000 0.6000 (  1472 PWs)   bands (ev):

   -89.2603  -4.1073   4.3784   4.4268   9.0009  19.4274  22.5086  24.5415
    24.7388

          k = 0.0000 0.8000 0.0000 (  1463 PWs)   bands (ev):

   -89.2602  -4.0129   3.2962   7.2297   7.2297  18.6122  20.6537  25.8413
    27.0715

          k = 0.9000-0.1000 0.9000 (  1463 PWs)   bands (ev):

   -89.2599  -3.2498   2.3905   6.5378   7.1788  18.6419  20.9886  26.1225
    26.7419

          k = 0.8000 0.0000 0.8000 (  1476 PWs)   bands (ev):

   -89.2599  -3.0475   2.5086   5.3889   7.5401  18.8461  22.6691  25.4871
    25.9235

          k = 0.0000-1.0000 0.0000 (  1428 PWs)   bands (ev):

   -89.2598  -2.9251   1.8311   6.9664   6.9664  18.3641  20.2265  26.5351
    27.3867

          k =-0.2000 0.4000 0.0000 (  1455 PWs)   bands (ev):

   -89.2624  -6.8083   7.2222   8.4092   9.9627  21.3524  22.0247  23.6915
    25.1154

          k =-0.3000 0.5000-0.1000 (  1452 PWs)   bands (ev):

   -89.2615  -5.8792   5.3179   7.7274   9.6912  20.7539  21.1570  23.4611
    25.1324

          k = 0.6000-0.4000 0.8000 (  1459 PWs)   bands (ev):

   -89.2608  -4.8591   3.4116   7.5303   9.2769  20.3291  20.6195  22.7458
    26.1116

          k = 0.5000-0.3000 0.7000 (  1464 PWs)   bands (ev):

   -89.2605  -4.3421   2.5650   7.5059   9.0741  20.0401  20.6819  22.3248
    26.6213

          k =-0.2000 0.6000 0.0000 (  1455 PWs)   bands (ev):

   -89.2612  -5.5028   5.4658   7.2826   8.5182  19.9271  22.6038  23.1162
    25.8734

          k = 0.7000-0.3000 0.9000 (  1465 PWs)   bands (ev):

   -89.2605  -4.5072   4.0246   6.3988   8.1774  19.9104  22.3266  23.5550
    25.6238

          k = 0.6000-0.2000 0.8000 (  1459 PWs)   bands (ev):

   -89.2602  -3.8030   3.0827   5.7837   8.1550  19.9908  22.0995  23.8043
    25.7532

          k = 0.5000-0.1000 0.7000 (  1464 PWs)   bands (ev):

   -89.2603  -4.0231   3.5318   5.4266   8.5703  20.2579  21.6680  23.8870
    25.5365

          k = 0.4000 0.0000 0.6000 (  1473 PWs)   bands (ev):

   -89.2608  -4.9282   4.7782   5.8295   9.2076  20.6607  21.2294  23.6985
    25.1429

          k = 0.8000-0.2000 1.0000 (  1459 PWs)   bands (ev):

   -89.2602  -3.9113   3.3864   6.4871   7.3568  19.1834  21.7082  24.8058
    26.4687

          k = 0.7000-0.1000 0.9000 (  1463 PWs)   bands (ev):

   -89.2599  -3.2396   2.8892   5.3838   7.3397  19.5398  22.8676  24.4057
    25.8366

          k = 0.6000 0.0000 0.8000 (  1465 PWs)   bands (ev):

   -89.2600  -3.3164   3.4827   4.4092   7.8073  19.8596  23.1810  24.4688
    25.0838

          k =-0.2000-1.0000 0.0000 (  1450 PWs)   bands (ev):

   -89.2598  -2.9436   2.1712   6.2047   6.9739  18.9815  21.3770  26.0666
    26.2144

          k = 0.6000-0.2000 1.0000 (  1464 PWs)   bands (ev):

   -89.2601  -3.6456   3.7267   4.9440   7.6345  20.8046  22.2253  23.6567
    25.5929

          k = 0.5000-0.1000 0.9000 (  1464 PWs)   bands (ev):

   -89.2599  -3.2339   3.5796   4.3817   7.3687  21.5026  21.7354  24.5143
    24.9595

          k =-0.4000-1.0000 0.0000 (  1452 PWs)   bands (ev):

   -89.2598  -2.9733   3.1543   4.6336   6.9857  20.7343  23.3584  23.6040
    25.2705

     the Fermi energy is     9.2756 ev

!    total energy              =     -48.65011194 Ry
     estimated scf accuracy    <       0.00000037 Ry
     smearing contrib. (-TS)   =      -0.00027861 Ry
     internal energy E=F+TS    =     -48.64983333 Ry

     The total energy is F=E-TS. E is the sum of the following terms:
     one-electron contribution =     -10.81259117 Ry
     hartree contribution      =       6.15185144 Ry
     xc contribution           =     -10.99552656 Ry
     ewald contribution        =     -32.99356704 Ry

     convergence has been achieved in   5 iterations

     Forces acting on atoms (cartesian axes, Ry/au):

     atom    1 type  1   force =     0.00000000    0.00000000   -0.00000000
     atom    2 type  2   force =     0.00000000    0.00000000   -0.00000000

     Total force =     0.000000     Total SCF correction =     0.000000


     Computing stress (Cartesian axis) and pressure

          total   stress  (Ry/bohr**3)                   (kbar)     P=       26.04
   0.00017700   0.00000000   0.00000000           26.04        0.00        0.00
   0.00000000   0.00017700   0.00000000            0.00       26.04        0.00
   0.00000000   0.00000000   0.00017700            0.00        0.00       26.04


     BFGS Geometry Optimization
     Energy error            =      2.0E-04 Ry
     Gradient error          =      1.6E-32 Ry/Bohr
     Cell gradient error     =      2.6E+01 kbar

     number of scf cycles    =   1
     number of bfgs steps    =   0

     enthalpy           new  =     -48.6501119377 Ry

     new trust radius        =       0.0082277937 bohr
     new conv_thr            =       0.0000010000 Ry

     new unit-cell volume =     87.58788 a.u.^3 (    12.97918 Ang^3 )
     density =      2.94500 g/cm^3

CELL_PARAMETERS (alat=  7.01860033)
  -0.502212471  -0.000000000   0.502212471
   0.000000000   0.502212471   0.502212471
  -0.502212471   0.502212471  -0.000000000

ATOMIC_POSITIONS (crystal)
Be              -0.0000000000        0.0000000000        0.0000000000
N                0.5000000000        0.5000000000        0.5000000000



     Writing config-only to output data dir ./tmp/BeN-relax.save/ :
     XML data file
     NEW-OLD atomic charge density approx. for the potential
     New effective cutoffs (rho, wfc):  396.39   99.10

     total cpu time spent up to now is        5.1 secs

     Self-consistent Calculation

     iteration #  1     ecut=   100.00 Ry     beta= 0.70
     Davidson diagonalization with overlap
     ethr =  1.00E-06,  avg # of iterations =  3.0

     Threshold (ethr) on eigenvalues was too large:
     Diagonalizing with lowered threshold

     Davidson diagonalization with overlap
     ethr =  3.70E-08,  avg # of iterations =  1.1

     total cpu time spent up to now is        6.3 secs

     total energy              =     -48.65018646 Ry
     estimated scf accuracy    <       0.00000315 Ry

     iteration #  2     ecut=   100.00 Ry     beta= 0.70
     Davidson diagonalization with overlap
     ethr =  3.50E-08,  avg # of iterations =  1.9

     total cpu time spent up to now is        6.8 secs

     End of self-consistent calculation

          k = 0.0000 0.0000 0.0000 (  1459 PWs)   bands (ev):

   -89.4734  -8.2458  10.1565  10.1565  10.1565  20.1884  26.4785  26.4785
    26.4785

          k =-0.0996 0.0996-0.0996 (  1441 PWs)   bands (ev):

   -89.4732  -8.0371   9.3234  10.1066  10.1066  20.4645  25.3603  25.3885
    25.3885

          k =-0.1991 0.1991-0.1991 (  1435 PWs)   bands (ev):

   -89.4724  -7.4299   7.3182   9.9898   9.9898  20.3363  23.4746  23.4746
    24.6682

          k =-0.2987 0.2987-0.2987 (  1447 PWs)   bands (ev):

   -89.4715  -6.5007   4.9512   9.8718   9.8718  19.3735  21.7705  21.7705
    25.5217

          k =-0.3982 0.3982-0.3982 (  1471 PWs)   bands (ev):

   -89.4707  -5.4796   2.9167   9.7970   9.7970  18.5871  20.6411  20.6411
    26.5023

          k = 0.4978-0.4978 0.4978 (  1476 PWs)   bands (ev):

   -89.4704  -4.9618   2.0384   9.7733   9.7733  18.3103  20.2475  20.2475
    26.8854

          k = 0.0000 0.1991 0.0000 (  1443 PWs)   bands (ev):

   -89.4731  -7.9663   9.6644   9.7606   9.7606  20.6786  24.3473  25.8020
    25.8020

          k =-0.0996 0.2987-0.0996 (  1440 PWs)   bands (ev):

   -89.4725  -7.4875   8.0460   9.4127   9.8221  21.0016  22.6758  24.4018
    24.8973

          k =-0.1991 0.3982-0.1991 (  1451 PWs)   bands (ev):

   -89.4716  -6.6529   5.7943   9.1944   9.6357  20.3700  21.1838  23.3793
    24.7577

          k =-0.2987 0.4978-0.2987 (  1452 PWs)   bands (ev):

   -89.4708  -5.6232   3.6231   9.1811   9.2696  19.5487  20.3044  21.9480
    25.9246

          k = 0.5974-0.3982 0.5974 (  1457 PWs)   bands (ev):

   -89.4703  -4.8534   2.2847   8.8818   9.3761  19.0230  20.2614  20.9635
    26.6269

          k = 0.4978-0.2987 0.4978 (  1465 PWs)   bands (ev):

   -89.4704  -5.0387   2.5953   8.6124   9.7106  19.0136  20.6114  20.8680
    26.4661

          k = 0.3982-0.1991 0.3982 (  1451 PWs)   bands (ev):

   -89.4710  -5.9762   4.3258   8.5548  10.0606  19.5475  20.9966  21.9548
    25.5422

          k = 0.2987-0.0996 0.2987 (  1460 PWs)   bands (ev):

   -89.4719  -6.9699   6.5834   8.7547  10.2911  20.4247  22.1241  23.2823
    24.4823

          k = 0.1991 0.0000 0.1991 (  1442 PWs)   bands (ev):

   -89.4727  -7.6938   8.5095   9.3054  10.3105  20.7529  23.8031  24.4439
    24.6711

          k = 0.0000 0.3982 0.0000 (  1463 PWs)   bands (ev):

   -89.4721  -7.1367   8.1614   8.8211   8.8211  21.1997  22.0717  23.7986
    25.5916

          k =-0.0996 0.4978-0.0996 (  1455 PWs)   bands (ev):

   -89.4713  -6.4123   6.4269   8.4128   8.5004  20.1726  22.1088  23.3057
    25.1092

          k =-0.1991 0.5974-0.1991 (  1454 PWs)   bands (ev):

   -89.4706  -5.4300   4.4157   7.8547   8.2964  19.5651  21.4672  23.9369
    24.5201

          k = 0.6969-0.2987 0.6969 (  1461 PWs)   bands (ev):

   -89.4701  -4.5267   2.8972   7.1136   8.5025  19.2020  21.5046  22.7108
    25.7500

          k = 0.5974-0.1991 0.5974 (  1467 PWs)   bands (ev):

   -89.4700  -4.3855   2.7320   6.5698   8.9869  19.1806  21.7627  22.0293
    25.9294

          k = 0.4978-0.0996 0.4978 (  1459 PWs)   bands (ev):

   -89.4704  -5.1548   4.0738   6.3934   9.6131  19.5730  21.2627  22.8005
    25.0595

          k = 0.3982 0.0000 0.3982 (  1444 PWs)   bands (ev):

   -89.4711  -6.1596   5.7721   6.9783  10.1379  20.2214  21.3488  23.3329
    24.1554

          k = 0.0000 0.5974 0.0000 (  1455 PWs)   bands (ev):

   -89.4708  -5.8001   5.7859   7.8100   7.8100  19.2361  21.7146  23.8237
    26.0561

          k =-0.0996 0.6969-0.0996 (  1455 PWs)   bands (ev):

   -89.4702  -4.9068   4.3323   7.1048   7.5313  18.8566  21.4618  24.3472
    25.7916

          k = 0.7965-0.1991 0.7965 (  1471 PWs)   bands (ev):

   -89.4698  -4.0007   3.1637   5.9720   7.6313  18.7799  22.3261  24.7522
    24.8615

          k = 0.6969-0.0996 0.6969 (  1464 PWs)   bands (ev):

   -89.4696  -3.6727   3.0322   4.9241   8.0963  18.8471  23.4162  23.4669
    25.1615

          k = 0.5974 0.0000 0.5974 (  1472 PWs)   bands (ev):

   -89.4699  -4.2326   4.2460   4.3212   8.8314  19.1500  22.2211  24.2161
    24.3577

          k = 0.0000 0.7965 0.0000 (  1463 PWs)   bands (ev):

   -89.4698  -4.1385   3.1817   7.0836   7.0836  18.3067  20.4494  25.4648
    26.7124

          k = 0.8960-0.0996 0.8960 (  1463 PWs)   bands (ev):

   -89.4695  -3.3966   2.3008   6.3997   7.0334  18.3358  20.7692  25.7543
    26.3878

          k = 0.7965 0.0000 0.7965 (  1476 PWs)   bands (ev):

   -89.4694  -3.2015   2.4256   5.2615   7.3903  18.5549  22.3943  25.1533
    25.5642

          k = 0.0000-0.9956 0.0000 (  1428 PWs)   bands (ev):

   -89.4694  -3.0836   1.7558   6.8237   6.8237  18.0517  20.0261  26.1615
    27.0206

          k =-0.1991 0.3982 0.0000 (  1455 PWs)   bands (ev):

   -89.4718  -6.8875   7.0496   8.2482   9.7745  21.0630  21.6748  23.4200
    24.7668

          k =-0.2987 0.4978-0.0996 (  1452 PWs)   bands (ev):

   -89.4710  -5.9715   5.1724   7.5723   9.5088  20.4826  20.8439  23.1719
    24.7620

          k = 0.5974-0.3982 0.7965 (  1459 PWs)   bands (ev):

   -89.4703  -4.9693   3.2972   7.3751   9.1017  20.0370  20.3437  22.4521
    25.7285

          k = 0.4978-0.2987 0.6969 (  1464 PWs)   bands (ev):

   -89.4701  -4.4637   2.4668   7.3501   8.9024  19.7512  20.4053  22.0334
    26.2295

          k =-0.1991 0.5974-0.0000 (  1455 PWs)   bands (ev):

   -89.4707  -5.6005   5.3132   7.1377   8.3524  19.6406  22.3574  22.7698
    25.5109

          k = 0.6969-0.2987 0.8960 (  1465 PWs)   bands (ev):

   -89.4701  -4.6231   3.8996   6.2629   8.0162  19.6205  22.0240  23.2627
    25.2611

          k = 0.5974-0.1991 0.7965 (  1459 PWs)   bands (ev):

   -89.4698  -3.9359   2.9821   5.6512   7.9943  19.7044  21.7915  23.4932
    25.3930

          k = 0.4978-0.0996 0.6969 (  1464 PWs)   bands (ev):

   -89.4699  -4.1505   3.4226   5.2984   8.4046  19.9712  21.3719  23.5678
    25.1691

          k = 0.3982-0.0000 0.5974 (  1473 PWs)   bands (ev):

   -89.4703  -5.0363   4.6355   5.7058   9.0331  20.3732  20.9386  23.4012
    24.7606

          k = 0.7965-0.1991 0.9956 (  1459 PWs)   bands (ev):

   -89.4698  -4.0397   3.2730   6.3528   7.2059  18.8781  21.4771  24.4593
    26.1018

          k = 0.6969-0.0996 0.8960 (  1463 PWs)   bands (ev):

   -89.4695  -3.3870   2.7961   5.2611   7.1880  19.2389  22.5907  24.0782
    25.4796

          k = 0.5974 0.0000 0.7965 (  1465 PWs)   bands (ev):

   -89.4695  -3.4619   3.3884   4.2901   7.6505  19.5691  22.8604  24.1397
    24.7464

          k =-0.1991-0.9956 0.0000 (  1450 PWs)   bands (ev):

   -89.4694  -3.1011   2.0921   6.0741   6.8269  18.6689  21.1507  25.7151
    25.8485

          k = 0.5974-0.1991 0.9956 (  1464 PWs)   bands (ev):

   -89.4697  -3.7814   3.6129   4.8315   7.4769  20.4949  21.9178  23.3650
    25.2316

          k = 0.4978-0.0996 0.8960 (  1464 PWs)   bands (ev):

   -89.4695  -3.3816   3.4800   4.2723   7.2126  21.1783  21.4383  24.1923
    24.6245

          k =-0.3982-0.9956 0.0000 (  1452 PWs)   bands (ev):

   -89.4694  -3.1291   3.0639   4.5249   6.8319  20.4158  23.0316  23.3157
    24.9299

     the Fermi energy is     9.1003 ev

!    total energy              =     -48.65018689 Ry
     estimated scf accuracy    <       0.00000061 Ry
     smearing contrib. (-TS)   =      -0.00028334 Ry
     internal energy E=F+TS    =     -48.64990355 Ry

     The total energy is F=E-TS. E is the sum of the following terms:
     one-electron contribution =     -11.01418398 Ry
     hartree contribution      =       6.19350645 Ry
     xc contribution           =     -10.98101045 Ry
     ewald contribution        =     -32.84821558 Ry

     convergence has been achieved in   2 iterations

     Forces acting on atoms (cartesian axes, Ry/au):

     atom    1 type  1   force =    -0.00000000   -0.00000000    0.00000000
     atom    2 type  2   force =     0.00000000    0.00000000    0.00000000

     Total force =     0.000000     Total SCF correction =     0.000000


     Computing stress (Cartesian axis) and pressure

          total   stress  (Ry/bohr**3)                   (kbar)     P=       -3.54
  -0.00002407   0.00000000   0.00000000           -3.54        0.00        0.00
   0.00000000  -0.00002407   0.00000000            0.00       -3.54        0.00
   0.00000000   0.00000000  -0.00002407            0.00        0.00       -3.54

     Energy error            =      7.5E-05 Ry
     Gradient error          =      8.2E-33 Ry/Bohr
     Cell gradient error     =      3.5E+00 kbar

     number of scf cycles    =   2
     number of bfgs steps    =   1

     enthalpy           old  =     -48.6501119377 Ry
     enthalpy           new  =     -48.6501868942 Ry

     CASE: enthalpy          _new < enthalpy          _old

     new trust radius        =       0.0009949092 bohr
     new conv_thr            =       0.0000000100 Ry

     new unit-cell volume =     87.44829 a.u.^3 (    12.95850 Ang^3 )
     density =      2.94971 g/cm^3

CELL_PARAMETERS (alat=  7.01860033)
  -0.501945528  -0.000000000   0.501945528
   0.000000000   0.501945528   0.501945528
  -0.501945528   0.501945528  -0.000000000

ATOMIC_POSITIONS (crystal)
Be              -0.0000000000       -0.0000000000        0.0000000000
N                0.5000000000        0.5000000000        0.5000000000



     Writing config-only to output data dir ./tmp/BeN-relax.save/ :
     XML data file
     NEW-OLD atomic charge density approx. for the potential
     New effective cutoffs (rho, wfc):  396.81   99.20

     total cpu time spent up to now is        7.1 secs

     Self-consistent Calculation

     iteration #  1     ecut=   100.00 Ry     beta= 0.70
     Davidson diagonalization with overlap
     ethr =  1.00E-06,  avg # of iterations =  2.0

     Threshold (ethr) on eigenvalues was too large:
     Diagonalizing with lowered threshold

     Davidson diagonalization with overlap
     ethr =  5.52E-09,  avg # of iterations =  2.0

     total cpu time spent up to now is        8.1 secs

     total energy              =     -48.65018995 Ry
     estimated scf accuracy    <       0.00000061 Ry

     iteration #  2     ecut=   100.00 Ry     beta= 0.70
     Davidson diagonalization with overlap
     ethr =  6.76E-09,  avg # of iterations =  1.9

     total cpu time spent up to now is        8.6 secs

     total energy              =     -48.65019013 Ry
     estimated scf accuracy    <       0.00000017 Ry

     iteration #  3     ecut=   100.00 Ry     beta= 0.70
     Davidson diagonalization with overlap
     ethr =  1.89E-09,  avg # of iterations =  1.3

     total cpu time spent up to now is        9.1 secs

     End of self-consistent calculation

          k = 0.0000 0.0000 0.0000 (  1459 PWs)   bands (ev):

   -89.4537  -8.2366  10.1823  10.1823  10.1823  20.2404  26.5184  26.5184
    26.5184

          k =-0.0996 0.0996-0.0996 (  1441 PWs)   bands (ev):

   -89.4534  -8.0277   9.3483  10.1323  10.1323  20.5151  25.3979  25.4259
    25.4259

          k =-0.1992 0.1992-0.1992 (  1435 PWs)   bands (ev):

   -89.4526  -7.4195   7.3404  10.0152  10.0152  20.3800  23.5088  23.5088
    24.7106

          k =-0.2988 0.2988-0.2988 (  1447 PWs)   bands (ev):

   -89.4517  -6.4887   4.9697   9.8969   9.8969  19.4116  21.8021  21.8021
    25.5701

          k =-0.3984 0.3984-0.3984 (  1471 PWs)   bands (ev):

   -89.4509  -5.4655   2.9314   9.8219   9.8219  18.6233  20.6711  20.6711
    26.5537

          k = 0.4981-0.4981 0.4981 (  1476 PWs)   bands (ev):

   -89.4506  -4.9462   2.0512   9.7982   9.7982  18.3460  20.2769  20.2769
    26.9377

          k = 0.0000 0.1992 0.0000 (  1443 PWs)   bands (ev):

   -89.4533  -7.9568   9.6906   9.7855   9.7855  20.7292  24.3840  25.8405
    25.8405

          k =-0.0996 0.2988-0.0996 (  1440 PWs)   bands (ev):

   -89.4527  -7.4772   8.0696   9.4368   9.8476  21.0477  22.7111  24.4380
    24.9346

          k =-0.1992 0.3984-0.1992 (  1451 PWs)   bands (ev):

   -89.4518  -6.6412   5.8143   9.2180   9.6607  20.4092  21.2160  23.4143
    24.8019

          k =-0.2988 0.4981-0.2988 (  1452 PWs)   bands (ev):

   -89.4510  -5.6095   3.6391   9.2046   9.2938  19.5859  20.3349  21.9807
    25.9734

          k = 0.5977-0.3984 0.5977 (  1457 PWs)   bands (ev):

   -89.4505  -4.8376   2.2978   8.9052   9.4000  19.0587  20.2928  20.9945
    26.6779

          k = 0.4981-0.2988 0.4981 (  1465 PWs)   bands (ev):

   -89.4506  -5.0235   2.6091   8.6352   9.7353  19.0492  20.6416  20.9007
    26.5169

          k = 0.3984-0.1992 0.3984 (  1451 PWs)   bands (ev):

   -89.4512  -5.9633   4.3432   8.5774  10.0861  19.5842  21.0271  21.9890
    25.5907

          k = 0.2988-0.0996 0.2988 (  1460 PWs)   bands (ev):

   -89.4521  -6.9588   6.6048   8.7775  10.3172  20.4654  22.1561  23.3175
    24.5267

          k = 0.1992 0.0000 0.1992 (  1442 PWs)   bands (ev):

   -89.4529  -7.6839   8.5338   9.3292  10.3366  20.8009  23.8377  24.4787
    24.7111

          k = 0.0000 0.3984 0.0000 (  1463 PWs)   bands (ev):

   -89.4523  -7.1259   8.1867   8.8438   8.8438  21.2320  22.1223  23.8265
    25.6311

          k =-0.0996 0.4981-0.0996 (  1455 PWs)   bands (ev):

   -89.4515  -6.4003   6.4487   8.4347   8.5231  20.2054  22.1480  23.3432
    25.1482

          k =-0.1992 0.5977-0.1992 (  1454 PWs)   bands (ev):

   -89.4508  -5.4160   4.4334   7.8762   8.3180  19.5980  21.5043  23.9739
    24.5619

          k = 0.6973-0.2988 0.6973 (  1461 PWs)   bands (ev):

   -89.4503  -4.5103   2.9112   7.1339   8.5245  19.2348  21.5427  22.7456
    25.7962

          k = 0.5977-0.1992 0.5977 (  1467 PWs)   bands (ev):

   -89.4502  -4.3686   2.7453   6.5892   9.0099  19.2137  21.7958  22.0683
    25.9775

          k = 0.4981-0.0996 0.4981 (  1459 PWs)   bands (ev):

   -89.4506  -5.1401   4.0905   6.4121   9.6375  19.6069  21.2945  22.8397
    25.1070

          k = 0.3984 0.0000 0.3984 (  1444 PWs)   bands (ev):

   -89.4514  -6.1471   5.7932   6.9970  10.1636  20.2575  21.3801  23.3690
    24.2036

          k = 0.0000 0.5977 0.0000 (  1455 PWs)   bands (ev):

   -89.4510  -5.7869   5.8072   7.8307   7.8307  19.2704  21.7402  23.8717
    26.0977

          k =-0.0996 0.6973-0.0996 (  1455 PWs)   bands (ev):

   -89.4504  -4.8917   4.3503   7.1243   7.5515  18.8917  21.4891  24.3925
    25.8328

          k = 0.7969-0.1992 0.7969 (  1471 PWs)   bands (ev):

   -89.4500  -3.9829   3.1781   5.9899   7.6517  18.8142  22.3606  24.7914
    24.9046

          k = 0.6973-0.0996 0.6973 (  1464 PWs)   bands (ev):

   -89.4498  -3.6536   3.0448   4.9409   8.1175  18.8805  23.4577  23.5037
    25.2052

          k = 0.5977 0.0000 0.5977 (  1472 PWs)   bands (ev):

   -89.4501  -4.2154   4.2634   4.3352   8.8541  19.1832  22.2554  24.2566
    24.4050

          k = 0.0000 0.7969 0.0000 (  1463 PWs)   bands (ev):

   -89.4500  -4.1213   3.1969   7.1030   7.1030  18.3432  20.4736  25.5118
    26.7560

          k = 0.8965-0.0996 0.8965 (  1463 PWs)   bands (ev):

   -89.4497  -3.3766   2.3127   6.4180   7.0527  18.3724  20.7955  25.8002
    26.4307

          k = 0.7969 0.0000 0.7969 (  1476 PWs)   bands (ev):

   -89.4496  -3.1805   2.4367   5.2783   7.4102  18.5897  22.4280  25.1936
    25.6092

          k = 0.0000-0.9961 0.0000 (  1428 PWs)   bands (ev):

   -89.4496  -3.0621   1.7658   6.8427   6.8427  18.0891  20.0498  26.2083
    27.0651

          k =-0.1992 0.3984 0.0000 (  1455 PWs)   bands (ev):

   -89.4520  -6.8763   7.0724   8.2696   9.7997  21.0977  21.7172  23.4530
    24.8090

          k =-0.2988 0.4981-0.0996 (  1452 PWs)   bands (ev):

   -89.4512  -5.9586   5.1916   7.5929   9.5332  20.5147  20.8820  23.2070
    24.8077

          k = 0.5977-0.3984 0.7969 (  1459 PWs)   bands (ev):

   -89.4505  -4.9540   3.3123   7.3957   9.1251  20.0723  20.3766  22.4875
    25.7763

          k = 0.4981-0.2988 0.6973 (  1464 PWs)   bands (ev):

   -89.4503  -4.4469   2.4797   7.3708   8.9253  19.7862  20.4383  22.0686
    26.2784

          k =-0.1992 0.5977-0.0000 (  1455 PWs)   bands (ev):

   -89.4509  -5.5869   5.3334   7.1570   8.3745  19.6746  22.3873  22.8124
    25.5552

          k = 0.6973-0.2988 0.8965 (  1465 PWs)   bands (ev):

   -89.4503  -4.6071   3.9162   6.2809   8.0376  19.6551  22.0611  23.2982
    25.3058

          k = 0.5977-0.1992 0.7969 (  1459 PWs)   bands (ev):

   -89.4500  -3.9177   2.9954   5.6688   8.0157  19.7387  21.8290  23.5312
    25.4379

          k = 0.4981-0.0996 0.6973 (  1464 PWs)   bands (ev):

   -89.4501  -4.1330   3.4370   5.3153   8.4266  20.0057  21.4074  23.6071
    25.2148

          k = 0.3984 0.0000 0.5977 (  1473 PWs)   bands (ev):

   -89.4505  -5.0214   4.6544   5.7221   9.0564  20.4079  20.9732  23.4380
    24.8078

          k = 0.7969-0.1992 0.9961 (  1459 PWs)   bands (ev):

   -89.4500  -4.0221   3.2881   6.3706   7.2259  18.9147  21.5050  24.5020
    26.1469

          k = 0.6973-0.0996 0.8965 (  1463 PWs)   bands (ev):

   -89.4497  -3.3669   2.8085   5.2773   7.2081  19.2750  22.6248  24.1179
    25.5240

          k = 0.5977 0.0000 0.7969 (  1465 PWs)   bands (ev):

   -89.4497  -3.4420   3.4009   4.3058   7.6713  19.6040  22.8991  24.1804
    24.7885

          k =-0.1992-0.9961-0.0000 (  1450 PWs)   bands (ev):

   -89.4496  -3.0797   2.1026   6.0914   6.8464  18.7065  21.1780  25.7577
    25.8943

          k = 0.5977-0.1992 0.9961 (  1464 PWs)   bands (ev):

   -89.4499  -3.7628   3.6280   4.8464   7.4977  20.5322  21.9550  23.4011
    25.2764

          k = 0.4981-0.0996 0.8965 (  1464 PWs)   bands (ev):

   -89.4497  -3.3615   3.4932   4.2868   7.2332  21.2179  21.4737  24.2322
    24.6662

          k =-0.3984-0.9961 0.0000 (  1452 PWs)   bands (ev):

   -89.4496  -3.1079   3.0759   4.5393   6.8522  20.4542  23.0710  23.3514
    24.9725

     the Fermi energy is     9.1237 ev

!    total energy              =     -48.65019016 Ry
     estimated scf accuracy    <          6.0E-10 Ry
     smearing contrib. (-TS)   =      -0.00028301 Ry
     internal energy E=F+TS    =     -48.64990715 Ry

     The total energy is F=E-TS. E is the sum of the following terms:
     one-electron contribution =     -10.98943920 Ry
     hartree contribution      =       6.18759478 Ry
     xc contribution           =     -10.98237791 Ry
     ewald contribution        =     -32.86568482 Ry

     convergence has been achieved in   3 iterations

     Forces acting on atoms (cartesian axes, Ry/au):

     atom    1 type  1   force =     0.00000000   -0.00000000    0.00000000
     atom    2 type  2   force =     0.00000000    0.00000000    0.00000000

     Total force =     0.000000     Total SCF correction =     0.000000


     Computing stress (Cartesian axis) and pressure

          total   stress  (Ry/bohr**3)                   (kbar)     P=       -1.45
  -0.00000986   0.00000000   0.00000000           -1.45        0.00        0.00
   0.00000000  -0.00000986  -0.00000000            0.00       -1.45       -0.00
   0.00000000  -0.00000000  -0.00000986            0.00       -0.00       -1.45

     Energy error            =      3.3E-06 Ry
     Gradient error          =      2.5E-32 Ry/Bohr
     Cell gradient error     =      1.5E+00 kbar

     number of scf cycles    =   3
     number of bfgs steps    =   2

     enthalpy           old  =     -48.6501868942 Ry
     enthalpy           new  =     -48.6501901597 Ry

     CASE: enthalpy          _new < enthalpy          _old

     new trust radius        =       0.0006892301 bohr
     new conv_thr            =       0.0000000100 Ry

     new unit-cell volume =     87.35164 a.u.^3 (    12.94418 Ang^3 )
     density =      2.95297 g/cm^3

CELL_PARAMETERS (alat=  7.01860033)
  -0.501760552  -0.000000000   0.501760552
   0.000000000   0.501760552   0.501760552
  -0.501760552   0.501760552  -0.000000000

ATOMIC_POSITIONS (crystal)
Be               0.0000000000        0.0000000000       -0.0000000000
N                0.5000000000        0.5000000000        0.5000000000



     Writing config-only to output data dir ./tmp/BeN-relax.save/ :
     XML data file
     NEW-OLD atomic charge density approx. for the potential
     New effective cutoffs (rho, wfc):  397.11   99.28

     total cpu time spent up to now is        9.4 secs

     Self-consistent Calculation

     iteration #  1     ecut=   100.00 Ry     beta= 0.70
     Davidson diagonalization with overlap
     ethr =  1.00E-06,  avg # of iterations =  2.0

     Threshold (ethr) on eigenvalues was too large:
     Diagonalizing with lowered threshold

     Davidson diagonalization with overlap
     ethr =  2.80E-10,  avg # of iterations =  3.1

     total cpu time spent up to now is       10.5 secs

     total energy              =     -48.65019035 Ry
     estimated scf accuracy    <       0.00000001 Ry

     iteration #  2     ecut=   100.00 Ry     beta= 0.70
     Davidson diagonalization with overlap
     ethr =  1.37E-10,  avg # of iterations =  1.0

     total cpu time spent up to now is       10.9 secs

     End of self-consistent calculation

          k = 0.0000 0.0000 0.0000 (  1459 PWs)   bands (ev):

   -89.4358  -8.2314  10.1983  10.1983  10.1983  20.2754  26.5466  26.5466
    26.5466

          k =-0.0996 0.0996-0.0996 (  1441 PWs)   bands (ev):

   -89.4355  -8.0223   9.3639  10.1482  10.1482  20.5493  25.4240  25.4524
    25.4524

          k =-0.1993 0.1993-0.1993 (  1435 PWs)   bands (ev):

   -89.4347  -7.4135   7.3544  10.0309  10.0309  20.4097  23.5330  23.5330
    24.7394

          k =-0.2989 0.2989-0.2989 (  1447 PWs)   bands (ev):

   -89.4338  -6.4817   4.9814   9.9125   9.9125  19.4376  21.8245  21.8245
    25.6026

          k =-0.3986 0.3986-0.3986 (  1471 PWs)   bands (ev):

   -89.4330  -5.4570   2.9407   9.8374   9.8374  18.6480  20.6924  20.6924
    26.5881

          k = 0.4982-0.4982 0.4982 (  1476 PWs)   bands (ev):

   -89.4327  -4.9369   2.0592   9.8136   9.8136  18.3705  20.2978  20.2978
    26.9727

          k = 0.0000 0.1993 0.0000 (  1443 PWs)   bands (ev):

   -89.4354  -7.9513   9.7069   9.8009   9.8009  20.7634  24.4099  25.8675
    25.8675

          k =-0.0996 0.2989-0.0996 (  1440 PWs)   bands (ev):

   -89.4348  -7.4713   8.0843   9.4517   9.8634  21.0789  22.7359  24.4629
    24.9607

          k =-0.1993 0.3986-0.1993 (  1451 PWs)   bands (ev):

   -89.4339  -6.6344   5.8268   9.2326   9.6763  20.4359  21.2388  23.4387
    24.8316

          k =-0.2989 0.4982-0.2989 (  1452 PWs)   bands (ev):

   -89.4331  -5.6013   3.6492   9.2192   9.3089  19.6113  20.3566  22.0036
    26.0060

          k = 0.5979-0.3986 0.5979 (  1457 PWs)   bands (ev):

   -89.4326  -4.8282   2.3060   8.9197   9.4149  19.0831  20.3149  21.0164
    26.7119

          k = 0.4982-0.2989 0.4982 (  1465 PWs)   bands (ev):

   -89.4327  -5.0144   2.6178   8.6494   9.7506  19.0735  20.6631  20.9235
    26.5508

          k = 0.3986-0.1993 0.3986 (  1451 PWs)   bands (ev):

   -89.4334  -5.9556   4.3542   8.5915  10.1019  19.6093  21.0489  22.0127
    25.6232

          k = 0.2989-0.0996 0.2989 (  1460 PWs)   bands (ev):

   -89.4342  -6.9523   6.6183   8.7917  10.3333  20.4932  22.1789  23.3419
    24.5568

          k = 0.1993 0.0000 0.1993 (  1442 PWs)   bands (ev):

   -89.4351  -7.6781   8.5491   9.3440  10.3528  20.8333  23.8623  24.5028
    24.7388

          k = 0.0000 0.3986 0.0000 (  1463 PWs)   bands (ev):

   -89.4344  -7.1196   8.2025   8.8580   8.8580  21.2549  22.1562  23.8461
    25.6585

          k =-0.0996 0.4982-0.0996 (  1455 PWs)   bands (ev):

   -89.4337  -6.3931   6.4624   8.4484   8.5373  20.2285  22.1745  23.3689
    25.1751

          k =-0.1993 0.5979-0.1993 (  1454 PWs)   bands (ev):

   -89.4329  -5.4076   4.4445   7.8897   8.3315  19.6211  21.5295  23.9995
    24.5900

          k = 0.6975-0.2989 0.6975 (  1461 PWs)   bands (ev):

   -89.4324  -4.5003   2.9200   7.1466   8.5382  19.2578  21.5685  22.7699
    25.8270

          k = 0.5979-0.1993 0.5979 (  1467 PWs)   bands (ev):

   -89.4323  -4.3584   2.7537   6.6014   9.0242  19.2367  21.8190  22.0946
    26.0096

          k = 0.4982-0.0996 0.4982 (  1459 PWs)   bands (ev):

   -89.4327  -5.1312   4.1011   6.4239   9.6526  19.6305  21.3170  22.8662
    25.1388

          k = 0.3986 0.0000 0.3986 (  1444 PWs)   bands (ev):

   -89.4335  -6.1396   5.8064   7.0087  10.1795  20.2826  21.4023  23.3934
    24.2361

          k = 0.0000 0.5979 0.0000 (  1455 PWs)   bands (ev):

   -89.4331  -5.7791   5.8206   7.8437   7.8437  19.2945  21.7582  23.9038
    26.1263

          k =-0.0996 0.6975-0.0996 (  1455 PWs)   bands (ev):

   -89.4325  -4.8826   4.3616   7.1365   7.5641  18.9163  21.5081  24.4230
    25.8612

          k = 0.7972-0.1993 0.7972 (  1471 PWs)   bands (ev):

   -89.4321  -3.9721   3.1870   6.0011   7.6645  18.8382  22.3841  24.8185
    24.9336

          k = 0.6975-0.0996 0.6975 (  1464 PWs)   bands (ev):

   -89.4320  -3.6420   3.0527   4.9515   8.1307  18.9039  23.4856  23.5292
    25.2344

          k = 0.5979 0.0000 0.5979 (  1472 PWs)   bands (ev):

   -89.4322  -4.2050   4.2744   4.3440   8.8682  19.2063  22.2793  24.2837
    24.4368

          k = 0.0000 0.7972 0.0000 (  1463 PWs)   bands (ev):

   -89.4321  -4.1108   3.2064   7.1151   7.1151  18.3686  20.4907  25.5432
    26.7860

          k = 0.8968-0.0996 0.8968 (  1463 PWs)   bands (ev):

   -89.4318  -3.3644   2.3202   6.4295   7.0648  18.3979  20.8138  25.8309
    26.4602

          k = 0.7972 0.0000 0.7972 (  1476 PWs)   bands (ev):

   -89.4318  -3.1677   2.4436   5.2889   7.4227  18.6140  22.4509  25.2214
    25.6391

          k = 0.0000-0.9965 0.0000 (  1428 PWs)   bands (ev):

   -89.4317  -3.0489   1.7721   6.8545   6.8545  18.1151  20.0666  26.2394
    27.0957

          k =-0.1993 0.3986 0.0000 (  1455 PWs)   bands (ev):

   -89.4341  -6.8697   7.0867   8.2829   9.8154  21.1220  21.7463  23.4757
    24.8380

          k =-0.2989 0.4982-0.0996 (  1452 PWs)   bands (ev):

   -89.4333  -5.9509   5.2037   7.6058   9.5484  20.5373  20.9081  23.2311
    24.8385

          k = 0.5979-0.3986 0.7972 (  1459 PWs)   bands (ev):

   -89.4326  -4.9448   3.3218   7.4086   9.1396  20.0967  20.3995  22.5120
    25.8082

          k = 0.4982-0.2989 0.6975 (  1464 PWs)   bands (ev):

   -89.4324  -4.4368   2.4879   7.3838   8.9396  19.8103  20.4614  22.0929
    26.3111

          k =-0.1993 0.5979-0.0000 (  1455 PWs)   bands (ev):

   -89.4330  -5.5788   5.3461   7.1690   8.3882  19.6985  22.4078  22.8413
    25.5854

          k = 0.6975-0.2989 0.8968 (  1465 PWs)   bands (ev):

   -89.4324  -4.5975   3.9265   6.2922   8.0510  19.6793  22.0864  23.3226
    25.3360

          k = 0.5979-0.1993 0.7972 (  1459 PWs)   bands (ev):

   -89.4321  -3.9066   3.0037   5.6798   8.0290  19.7626  21.8547  23.5571
    25.4679

          k = 0.4982-0.0996 0.6975 (  1464 PWs)   bands (ev):

   -89.4322  -4.1224   3.4461   5.3260   8.4404  20.0296  21.4321  23.6338
    25.2454

          k = 0.3986 0.0000 0.5979 (  1473 PWs)   bands (ev):

   -89.4326  -5.0124   4.6662   5.7324   9.0709  20.4318  20.9975  23.4628
    24.8396

          k = 0.7972-0.1993 0.9965 (  1459 PWs)   bands (ev):

   -89.4321  -4.0114   3.2975   6.3818   7.2385  18.9401  21.5243  24.5309
    26.1775

          k = 0.6975-0.0996 0.8968 (  1463 PWs)   bands (ev):

   -89.4318  -3.3547   2.8162   5.2875   7.2207  19.3001  22.6479  24.1452
    25.5538

          k = 0.5979 0.0000 0.7972 (  1465 PWs)   bands (ev):

   -89.4319  -3.4299   3.4087   4.3157   7.6843  19.6282  22.9258  24.2078
    24.8166

          k =-0.1993-0.9965-0.0000 (  1450 PWs)   bands (ev):

   -89.4317  -3.0666   2.1092   6.1023   6.8586  18.7325  21.1969  25.7870
    25.9248

          k = 0.5979-0.1993 0.9965 (  1464 PWs)   bands (ev):

   -89.4320  -3.7515   3.6375   4.8557   7.5108  20.5580  21.9806  23.4254
    25.3065

          k = 0.4982-0.0996 0.8968 (  1464 PWs)   bands (ev):

   -89.4318  -3.3492   3.5014   4.2959   7.2462  21.2449  21.4985  24.2590
    24.6942

          k =-0.3986-0.9965 0.0000 (  1452 PWs)   bands (ev):

   -89.4317  -3.0950   3.0834   4.5483   6.8649  20.4807  23.0983  23.3755
    25.0009

     the Fermi energy is     9.1383 ev

!    total energy              =     -48.65019035 Ry
     estimated scf accuracy    <          1.3E-09 Ry
     smearing contrib. (-TS)   =      -0.00028263 Ry
     internal energy E=F+TS    =     -48.64990772 Ry

     The total energy is F=E-TS. E is the sum of the following terms:
     one-electron contribution =     -10.97261968 Ry
     hartree contribution      =       6.18408924 Ry
     xc contribution           =     -10.98357639 Ry
     ewald contribution        =     -32.87780088 Ry

     convergence has been achieved in   2 iterations

     Forces acting on atoms (cartesian axes, Ry/au):

     atom    1 type  1   force =     0.00000000    0.00000000   -0.00000000
     atom    2 type  2   force =    -0.00000000   -0.00000000   -0.00000000

     Total force =     0.000000     Total SCF correction =     0.000000


     Computing stress (Cartesian axis) and pressure

          total   stress  (Ry/bohr**3)                   (kbar)     P=        0.89
   0.00000604   0.00000000   0.00000000            0.89        0.00        0.00
   0.00000000   0.00000604  -0.00000000            0.00        0.89       -0.00
   0.00000000  -0.00000000   0.00000604            0.00       -0.00        0.89

     Energy error            =      1.9E-07 Ry
     Gradient error          =      6.6E-32 Ry/Bohr
     Cell gradient error     =      8.9E-01 kbar

     number of scf cycles    =   4
     number of bfgs steps    =   3

     enthalpy           old  =     -48.6501901597 Ry
     enthalpy           new  =     -48.6501903497 Ry

     CASE: enthalpy          _new < enthalpy          _old

     new trust radius        =       0.0002614900 bohr
     new conv_thr            =       0.0000000100 Ry

     new unit-cell volume =     87.38831 a.u.^3 (    12.94961 Ang^3 )
     density =      2.95173 g/cm^3

CELL_PARAMETERS (alat=  7.01860033)
  -0.501830744  -0.000000000   0.501830744
   0.000000000   0.501830744   0.501830744
  -0.501830744   0.501830744  -0.000000000

ATOMIC_POSITIONS (crystal)
Be              -0.0000000000        0.0000000000        0.0000000000
N                0.5000000000        0.5000000000        0.5000000000



     Writing config-only to output data dir ./tmp/BeN-relax.save/ :
     XML data file
     NEW-OLD atomic charge density approx. for the potential
     New effective cutoffs (rho, wfc):  396.99   99.25

     total cpu time spent up to now is       11.2 secs

     Self-consistent Calculation

     iteration #  1     ecut=   100.00 Ry     beta= 0.70
     Davidson diagonalization with overlap
     ethr =  1.00E-06,  avg # of iterations =  1.0

     Threshold (ethr) on eigenvalues was too large:
     Diagonalizing with lowered threshold

     Davidson diagonalization with overlap
     ethr =  2.89E-11,  avg # of iterations =  3.1

     total cpu time spent up to now is       12.2 secs

     End of self-consistent calculation

          k = 0.0000 0.0000 0.0000 (  1459 PWs)   bands (ev):

   -89.4418  -8.2334  10.1922  10.1922  10.1922  20.2621  26.5360  26.5360
    26.5360

          k =-0.0996 0.0996-0.0996 (  1441 PWs)   bands (ev):

   -89.4415  -8.0244   9.3579  10.1421  10.1421  20.5363  25.4142  25.4424
    25.4424

          k =-0.1993 0.1993-0.1993 (  1435 PWs)   bands (ev):

   -89.4407  -7.4158   7.3490  10.0249  10.0249  20.3985  23.5239  23.5239
    24.7285

          k =-0.2989 0.2989-0.2989 (  1447 PWs)   bands (ev):

   -89.4398  -6.4844   4.9769   9.9065   9.9065  19.4278  21.8161  21.8161
    25.5903

          k =-0.3985 0.3985-0.3985 (  1471 PWs)   bands (ev):

   -89.4390  -5.4603   2.9372   9.8314   9.8314  18.6387  20.6844  20.6844
    26.5750

          k = 0.4982-0.4982 0.4982 (  1476 PWs)   bands (ev):

   -89.4387  -4.9405   2.0561   9.8077   9.8077  18.3612  20.2900  20.2900
    26.9594

          k = 0.0000 0.1993 0.0000 (  1443 PWs)   bands (ev):

   -89.4414  -7.9534   9.7006   9.7950   9.7950  20.7504  24.4001  25.8573
    25.8573

          k =-0.0996 0.2989-0.0996 (  1440 PWs)   bands (ev):

   -89.4408  -7.4736   8.0787   9.4460   9.8574  21.0671  22.7266  24.4535
    24.9509

          k =-0.1993 0.3985-0.1993 (  1451 PWs)   bands (ev):

   -89.4399  -6.6370   5.8220   9.2270   9.6703  20.4258  21.2302  23.4295
    24.8203

          k =-0.2989 0.4982-0.2989 (  1452 PWs)   bands (ev):

   -89.4391  -5.6044   3.6454   9.2136   9.3031  19.6017  20.3485  21.9950
    25.9936

          k = 0.5978-0.3985 0.5978 (  1457 PWs)   bands (ev):

   -89.4386  -4.8318   2.3029   8.9141   9.4092  19.0739  20.3066  21.0082
    26.6989

          k = 0.4982-0.2989 0.4982 (  1465 PWs)   bands (ev):

   -89.4387  -5.0179   2.6145   8.6440   9.7448  19.0643  20.6550  20.9149
    26.5379

          k = 0.3985-0.1993 0.3985 (  1451 PWs)   bands (ev):

   -89.4393  -5.9585   4.3500   8.5861  10.0958  19.5998  21.0407  22.0038
    25.6108

          k = 0.2989-0.0996 0.2989 (  1460 PWs)   bands (ev):

   -89.4402  -6.9548   6.6131   8.7863  10.3271  20.4827  22.1704  23.3327
    24.5454

          k = 0.1993 0.0000 0.1993 (  1442 PWs)   bands (ev):

   -89.4410  -7.6803   8.5433   9.3383  10.3466  20.8210  23.8530  24.4937
    24.7284

          k = 0.0000 0.3985 0.0000 (  1463 PWs)   bands (ev):

   -89.4404  -7.1220   8.1965   8.8526   8.8526  21.2463  22.1433  23.8387
    25.6482

          k =-0.0996 0.4982-0.0996 (  1455 PWs)   bands (ev):

   -89.4396  -6.3959   6.4571   8.4432   8.5318  20.2198  22.1645  23.3592
    25.1650

          k =-0.1993 0.5978-0.1993 (  1454 PWs)   bands (ev):

   -89.4389  -5.4108   4.4403   7.8845   8.3264  19.6124  21.5200  23.9899
    24.5794

          k = 0.6974-0.2989 0.6974 (  1461 PWs)   bands (ev):

   -89.4384  -4.5042   2.9166   7.1417   8.5330  19.2491  21.5587  22.7607
    25.8153

          k = 0.5978-0.1993 0.5978 (  1467 PWs)   bands (ev):

   -89.4383  -4.3623   2.7505   6.5967   9.0187  19.2281  21.8102  22.0847
    25.9974

          k = 0.4982-0.0996 0.4982 (  1459 PWs)   bands (ev):

   -89.4387  -5.1346   4.0971   6.4194   9.6468  19.6216  21.3085  22.8562
    25.1267

          k = 0.3985 0.0000 0.3985 (  1444 PWs)   bands (ev):

   -89.4394  -6.1425   5.8014   7.0042  10.1734  20.2731  21.3940  23.3842
    24.2237

          k = 0.0000 0.5978 0.0000 (  1455 PWs)   bands (ev):

   -89.4391  -5.7821   5.8155   7.8387   7.8387  19.2854  21.7514  23.8916
    26.1155

          k =-0.0996 0.6974-0.0996 (  1455 PWs)   bands (ev):

   -89.4385  -4.8861   4.3573   7.1318   7.5593  18.9070  21.5010  24.4115
    25.8505

          k = 0.7971-0.1993 0.7971 (  1471 PWs)   bands (ev):

   -89.4380  -3.9762   3.1836   5.9968   7.6596  18.8291  22.3752  24.8083
    24.9226

          k = 0.6974-0.0996 0.6974 (  1464 PWs)   bands (ev):

   -89.4379  -3.6465   3.0497   4.9474   8.1256  18.8951  23.4750  23.5196
    25.2233

          k = 0.5978 0.0000 0.5978 (  1472 PWs)   bands (ev):

   -89.4382  -4.2090   4.2702   4.3406   8.8628  19.1976  22.2703  24.2734
    24.4247

          k = 0.0000 0.7971 0.0000 (  1463 PWs)   bands (ev):

   -89.4381  -4.1149   3.2028   7.1105   7.1105  18.3590  20.4843  25.5313
    26.7747

          k = 0.8967-0.0996 0.8967 (  1463 PWs)   bands (ev):

   -89.4378  -3.3691   2.3173   6.4251   7.0602  18.3883  20.8069  25.8193
    26.4491

          k = 0.7971 0.0000 0.7971 (  1476 PWs)   bands (ev):

   -89.4377  -3.1726   2.4409   5.2849   7.4179  18.6048  22.4422  25.2109
    25.6278

          k = 0.0000-0.9964 0.0000 (  1428 PWs)   bands (ev):

   -89.4377  -3.0540   1.7697   6.8500   6.8500  18.1053  20.0603  26.2276
    27.0841

          k =-0.1993 0.3985 0.0000 (  1455 PWs)   bands (ev):

   -89.4401  -6.8723   7.0813   8.2778   9.8094  21.1128  21.7352  23.4671
    24.8271

          k =-0.2989 0.4982-0.0996 (  1452 PWs)   bands (ev):

   -89.4393  -5.9539   5.1991   7.6009   9.5425  20.5288  20.8982  23.2220
    24.8268

          k = 0.5978-0.3985 0.7971 (  1459 PWs)   bands (ev):

   -89.4386  -4.9484   3.3182   7.4037   9.1341  20.0875  20.3909  22.5028
    25.7960

          k = 0.4982-0.2989 0.6974 (  1464 PWs)   bands (ev):

   -89.4384  -4.4407   2.4848   7.3788   8.9341  19.8012  20.4527  22.0837
    26.2987

          k =-0.1993 0.5978-0.0000 (  1455 PWs)   bands (ev):

   -89.4390  -5.5819   5.3412   7.1644   8.3830  19.6894  22.4001  22.8304
    25.5740

          k = 0.6974-0.2989 0.8967 (  1465 PWs)   bands (ev):

   -89.4384  -4.6012   3.9226   6.2879   8.0459  19.6701  22.0768  23.3134
    25.3246

          k = 0.5978-0.1993 0.7971 (  1459 PWs)   bands (ev):

   -89.4380  -3.9109   3.0005   5.6756   8.0239  19.7536  21.8450  23.5473
    25.4566

          k = 0.4982-0.0996 0.6974 (  1464 PWs)   bands (ev):

   -89.4381  -4.1265   3.4426   5.3219   8.4351  20.0206  21.4228  23.6237
    25.2338

          k = 0.3985 0.0000 0.5978 (  1473 PWs)   bands (ev):

   -89.4386  -5.0158   4.6617   5.7285   9.0654  20.4228  20.9884  23.4534
    24.8276

          k = 0.7971-0.1993 0.9964 (  1459 PWs)   bands (ev):

   -89.4380  -4.0155   3.2939   6.3775   7.2337  18.9305  21.5170  24.5199
    26.1659

          k = 0.6974-0.0996 0.8967 (  1463 PWs)   bands (ev):

   -89.4378  -3.3594   2.8132   5.2836   7.2159  19.2906  22.6391  24.1349
    25.5425

          k = 0.5978 0.0000 0.7971 (  1465 PWs)   bands (ev):

   -89.4378  -3.4346   3.4057   4.3119   7.6793  19.6190  22.9158  24.1975
    24.8060

          k =-0.1993-0.9964-0.0000 (  1450 PWs)   bands (ev):

   -89.4377  -3.0716   2.1067   6.0981   6.8539  18.7226  21.1898  25.7759
    25.9132

          k = 0.5978-0.1993 0.9964 (  1464 PWs)   bands (ev):

   -89.4379  -3.7559   3.6338   4.8522   7.5058  20.5482  21.9709  23.4162
    25.2951

          k = 0.4982-0.0996 0.8967 (  1464 PWs)   bands (ev):

   -89.4378  -3.3539   3.4983   4.2924   7.2412  21.2346  21.4892  24.2489
    24.6836

          k =-0.3985-0.9964 0.0000 (  1452 PWs)   bands (ev):

   -89.4377  -3.1000   3.0805   4.5449   6.8601  20.4707  23.0880  23.3664
    24.9901

     the Fermi energy is     9.1327 ev

!    total energy              =     -48.65019046 Ry
     estimated scf accuracy    <          1.7E-09 Ry
     smearing contrib. (-TS)   =      -0.00028276 Ry
     internal energy E=F+TS    =     -48.64990771 Ry

     The total energy is F=E-TS. E is the sum of the following terms:
     one-electron contribution =     -10.97901125 Ry
     hartree contribution      =       6.18543369 Ry
     xc contribution           =     -10.98312793 Ry
     ewald contribution        =     -32.87320222 Ry

     convergence has been achieved in   1 iterations

     Forces acting on atoms (cartesian axes, Ry/au):

     atom    1 type  1   force =     0.00000000    0.00000000    0.00000000
     atom    2 type  2   force =     0.00000000    0.00000000    0.00000000

     Total force =     0.000000     Total SCF correction =     0.000000


     Computing stress (Cartesian axis) and pressure

          total   stress  (Ry/bohr**3)                   (kbar)     P=       -0.00
  -0.00000002  -0.00000000   0.00000000           -0.00       -0.00        0.00
  -0.00000000  -0.00000002  -0.00000000           -0.00       -0.00       -0.00
   0.00000000   0.00000000  -0.00000002            0.00        0.00       -0.00

     Energy error            =      1.1E-07 Ry
     Gradient error          =      1.1E-31 Ry/Bohr
     Cell gradient error     =      3.3E-03 kbar

     bfgs converged in   5 scf cycles and   4 bfgs steps
     (criteria: energy <  1.0E-04 Ry, force <  1.0E-03 Ry/Bohr, cell <  5.0E-01 kbar)

     End of BFGS Geometry Optimization

     Final enthalpy           =     -48.6501904642 Ry

     File ./tmp/BeN-relax.bfgs deleted, as requested
Begin final coordinates
     new unit-cell volume =     87.38831 a.u.^3 (    12.94961 Ang^3 )
     density =      2.95173 g/cm^3

CELL_PARAMETERS (alat=  7.01860033)
  -0.501830744  -0.000000000   0.501830744
   0.000000000   0.501830744   0.501830744
  -0.501830744   0.501830744  -0.000000000

ATOMIC_POSITIONS (crystal)
Be              -0.0000000000        0.0000000000        0.0000000000
N                0.5000000000        0.5000000000        0.5000000000
End final coordinates



     Writing config-only to output data dir ./tmp/BeN-relax.save/ :
     XML data file

     Final scf calculation at the relaxed structure.
     The G-vectors are recalculated for the final unit cell
     Results may differ from those at the preceding step.

     G-vector sticks info
     --------------------
     sticks:   dense  smooth     PW     G-vecs:    dense   smooth      PW
     Sum         673     673    211                11791    11791    2085

     Using Slab Decomposition



     bravais-lattice index     =            2
     lattice parameter (alat)  =       7.0186  a.u.
     unit-cell volume          =      87.3883 (a.u.)^3
     number of atoms/cell      =            2
     number of atomic types    =            2
     number of electrons       =         9.00
     number of Kohn-Sham states=            9
     kinetic-energy cutoff     =     100.0000  Ry
     charge density cutoff     =     400.0000  Ry
     scf convergence threshold =      1.0E-08
     mixing beta               =       0.7000
     number of iterations used =            8  plain     mixing
     press convergence thresh. =      5.0E-01
     Exchange-correlation= PBE
                           (   1   4   3   4   0   0   0)

     celldm(1)=   7.018600  celldm(2)=   0.000000  celldm(3)=   0.000000
     celldm(4)=   0.000000  celldm(5)=   0.000000  celldm(6)=   0.000000

     crystal axes: (cart. coord. in units of alat)
               a(1) = (  -0.501831  -0.000000   0.501831 )  
               a(2) = (   0.000000   0.501831   0.501831 )  
               a(3) = (  -0.501831   0.501831  -0.000000 )  

     reciprocal axes: (cart. coord. in units 2 pi/alat)
               b(1) = ( -0.996352 -0.996352  0.996352 )  
               b(2) = (  0.996352  0.996352  0.996352 )  
               b(3) = ( -0.996352  0.996352 -0.996352 )  


     PseudoPot. # 1 for Be read from file:
     ./PSEUDO/Be_ONCV_PBE_sr.upf
     MD5 check sum: f32703449d889b1d166f7ecd0677d20c
     Pseudo is Norm-conserving, Zval =  4.0
     Generated using ONCVPSP code by D. R. Hamann
     Using radial grid of 1358 points,  4 beta functions with: 
                l(1) =   0
                l(2) =   0
                l(3) =   1
                l(4) =   1

     PseudoPot. # 2 for N  read from file:
     ./PSEUDO/N_ONCV_PBE_sr.upf
     MD5 check sum: 18c6af81dac9c5a2d6d52ed11cf7bfee
     Pseudo is Norm-conserving + core correction, Zval =  5.0
     Generated using ONCVPSP code by D. R. Hamann
     Using radial grid of 1058 points,  4 beta functions with: 
                l(1) =   0
                l(2) =   0
                l(3) =   1
                l(4) =   1

     atomic species   valence    mass     pseudopotential
     Be                4.00     9.01218     Be( 1.00)
     N                 5.00    14.00670     N ( 1.00)

     48 Sym. Ops., with inversion, found



   Cartesian axes

     site n.     atom                  positions (alat units)
         1        Be     tau(   1) = (   0.0000000   0.0000000  -0.0000000  )
         2        N      tau(   2) = (  -0.5018307   0.5018307   0.5018307  )

     number of k points=    47  Marzari-Vanderbilt smearing, width (Ry)=  0.0200
                       cart. coord. in units 2pi/alat
        k(    1) = (   0.0000000   0.0000000   0.0000000), wk =   0.0020000
        k(    2) = (  -0.0996352   0.0996352  -0.0996352), wk =   0.0160000
        k(    3) = (  -0.1992704   0.1992704  -0.1992704), wk =   0.0160000
        k(    4) = (  -0.2989056   0.2989056  -0.2989056), wk =   0.0160000
        k(    5) = (  -0.3985407   0.3985407  -0.3985407), wk =   0.0160000
        k(    6) = (   0.4981759  -0.4981759   0.4981759), wk =   0.0080000
        k(    7) = (   0.0000000   0.1992704   0.0000000), wk =   0.0120000
        k(    8) = (  -0.0996352   0.2989056  -0.0996352), wk =   0.0480000
        k(    9) = (  -0.1992704   0.3985407  -0.1992704), wk =   0.0480000
        k(   10) = (  -0.2989056   0.4981759  -0.2989056), wk =   0.0480000
        k(   11) = (   0.5978111  -0.3985407   0.5978111), wk =   0.0480000
        k(   12) = (   0.4981759  -0.2989056   0.4981759), wk =   0.0480000
        k(   13) = (   0.3985407  -0.1992704   0.3985407), wk =   0.0480000
        k(   14) = (   0.2989056  -0.0996352   0.2989056), wk =   0.0480000
        k(   15) = (   0.1992704   0.0000000   0.1992704), wk =   0.0240000
        k(   16) = (   0.0000000   0.3985407   0.0000000), wk =   0.0120000
        k(   17) = (  -0.0996352   0.4981759  -0.0996352), wk =   0.0480000
        k(   18) = (  -0.1992704   0.5978111  -0.1992704), wk =   0.0480000
        k(   19) = (   0.6974463  -0.2989056   0.6974463), wk =   0.0480000
        k(   20) = (   0.5978111  -0.1992704   0.5978111), wk =   0.0480000
        k(   21) = (   0.4981759  -0.0996352   0.4981759), wk =   0.0480000
        k(   22) = (   0.3985407   0.0000000   0.3985407), wk =   0.0240000
        k(   23) = (   0.0000000   0.5978111   0.0000000), wk =   0.0120000
        k(   24) = (  -0.0996352   0.6974463  -0.0996352), wk =   0.0480000
        k(   25) = (   0.7970815  -0.1992704   0.7970815), wk =   0.0480000
        k(   26) = (   0.6974463  -0.0996352   0.6974463), wk =   0.0480000
        k(   27) = (   0.5978111   0.0000000   0.5978111), wk =   0.0240000
        k(   28) = (   0.0000000   0.7970815   0.0000000), wk =   0.0120000
        k(   29) = (   0.8967167  -0.0996352   0.8967167), wk =   0.0480000
        k(   30) = (   0.7970815   0.0000000   0.7970815), wk =   0.0240000
        k(   31) = (   0.0000000  -0.9963519   0.0000000), wk =   0.0060000
        k(   32) = (  -0.1992704   0.3985407   0.0000000), wk =   0.0480000
        k(   33) = (  -0.2989056   0.4981759  -0.0996352), wk =   0.0960000
        k(   34) = (   0.5978111  -0.3985407   0.7970815), wk =   0.0960000
        k(   35) = (   0.4981759  -0.2989056   0.6974463), wk =   0.0480000
        k(   36) = (  -0.1992704   0.5978111  -0.0000000), wk =   0.0480000
        k(   37) = (   0.6974463  -0.2989056   0.8967167), wk =   0.0960000
        k(   38) = (   0.5978111  -0.1992704   0.7970815), wk =   0.0960000
        k(   39) = (   0.4981759  -0.0996352   0.6974463), wk =   0.0960000
        k(   40) = (   0.3985407   0.0000000   0.5978111), wk =   0.0480000
        k(   41) = (   0.7970815  -0.1992704   0.9963519), wk =   0.0480000
        k(   42) = (   0.6974463  -0.0996352   0.8967167), wk =   0.0960000
        k(   43) = (   0.5978111   0.0000000   0.7970815), wk =   0.0480000
        k(   44) = (  -0.1992704  -0.9963519  -0.0000000), wk =   0.0240000
        k(   45) = (   0.5978111  -0.1992704   0.9963519), wk =   0.0480000
        k(   46) = (   0.4981759  -0.0996352   0.8967167), wk =   0.0480000
        k(   47) = (  -0.3985407  -0.9963519   0.0000000), wk =   0.0240000

     Dense  grid:    11791 G-vectors     FFT dimensions: (  32,  32,  32)

     Estimated max dynamical RAM per process >      20.44 MB

     Initial potential from superposition of free atoms

     starting charge       8.9998, renormalised to       9.0000
     Starting wfcs are    6 randomized atomic wfcs +    3 random wfcs

     total cpu time spent up to now is       12.8 secs

     Self-consistent Calculation

     iteration #  1     ecut=   100.00 Ry     beta= 0.70
     Davidson diagonalization with overlap
     ethr =  1.00E-06,  avg # of iterations =  9.5

     total cpu time spent up to now is       14.3 secs

     total energy              =     -48.62707090 Ry
     estimated scf accuracy    <       0.07135717 Ry

     iteration #  2     ecut=   100.00 Ry     beta= 0.70
     Davidson diagonalization with overlap
     ethr =  7.93E-04,  avg # of iterations =  1.9

     total cpu time spent up to now is       14.8 secs

     total energy              =     -48.64632022 Ry
     estimated scf accuracy    <       0.01945520 Ry

     iteration #  3     ecut=   100.00 Ry     beta= 0.70
     Davidson diagonalization with overlap
     ethr =  2.16E-04,  avg # of iterations =  1.4

     total cpu time spent up to now is       15.3 secs

     total energy              =     -48.65015560 Ry
     estimated scf accuracy    <       0.00020749 Ry

     iteration #  4     ecut=   100.00 Ry     beta= 0.70
     Davidson diagonalization with overlap
     ethr =  2.31E-06,  avg # of iterations =  2.0

     total cpu time spent up to now is       15.8 secs

     total energy              =     -48.65019074 Ry
     estimated scf accuracy    <       0.00001009 Ry

     iteration #  5     ecut=   100.00 Ry     beta= 0.70
     Davidson diagonalization with overlap
     ethr =  1.12E-07,  avg # of iterations =  1.2

     total cpu time spent up to now is       16.3 secs

     total energy              =     -48.65019198 Ry
     estimated scf accuracy    <       0.00000040 Ry

     iteration #  6     ecut=   100.00 Ry     beta= 0.70
     Davidson diagonalization with overlap
     ethr =  4.41E-09,  avg # of iterations =  2.0

     total cpu time spent up to now is       16.9 secs

     total energy              =     -48.65019209 Ry
     estimated scf accuracy    <       0.00000003 Ry

     iteration #  7     ecut=   100.00 Ry     beta= 0.70
     Davidson diagonalization with overlap
     ethr =  3.15E-10,  avg # of iterations =  1.1

     total cpu time spent up to now is       17.3 secs

     End of self-consistent calculation

          k = 0.0000 0.0000 0.0000 (  1459 PWs)   bands (ev):

   -89.4423  -8.2334  10.1921  10.1921  10.1921  20.2621  26.5359  26.5359
    26.5359

          k =-0.0996 0.0996-0.0996 (  1459 PWs)   bands (ev):

   -89.4420  -8.0244   9.3579  10.1421  10.1421  20.5363  25.4142  25.4424
    25.4424

          k =-0.1993 0.1993-0.1993 (  1465 PWs)   bands (ev):

   -89.4412  -7.4158   7.3490  10.0249  10.0249  20.3984  23.5239  23.5239
    24.7285

          k =-0.2989 0.2989-0.2989 (  1459 PWs)   bands (ev):

   -89.4403  -6.4844   4.9769   9.9065   9.9065  19.4277  21.8161  21.8161
    25.5902

          k =-0.3985 0.3985-0.3985 (  1471 PWs)   bands (ev):

   -89.4395  -5.4603   2.9371   9.8314   9.8314  18.6386  20.6844  20.6844
    26.5750

          k = 0.4982-0.4982 0.4982 (  1476 PWs)   bands (ev):

   -89.4392  -4.9405   2.0561   9.8076   9.8076  18.3612  20.2899  20.2899
    26.9594

          k = 0.0000 0.1993 0.0000 (  1451 PWs)   bands (ev):

   -89.4419  -7.9534   9.7006   9.7950   9.7950  20.7504  24.4001  25.8573
    25.8573

          k =-0.0996 0.2989-0.0996 (  1463 PWs)   bands (ev):

   -89.4413  -7.4736   8.0786   9.4460   9.8574  21.0670  22.7265  24.4534
    24.9508

          k =-0.1993 0.3985-0.1993 (  1467 PWs)   bands (ev):

   -89.4404  -6.6370   5.8220   9.2270   9.6703  20.4258  21.2302  23.4295
    24.8203

          k =-0.2989 0.4982-0.2989 (  1472 PWs)   bands (ev):

   -89.4396  -5.6044   3.6454   9.2136   9.3031  19.6016  20.3484  21.9949
    25.9936

          k = 0.5978-0.3985 0.5978 (  1482 PWs)   bands (ev):

   -89.4391  -4.8318   2.3029   8.9141   9.4092  19.0738  20.3066  21.0082
    26.6989

          k = 0.4982-0.2989 0.4982 (  1475 PWs)   bands (ev):

   -89.4392  -5.0179   2.6145   8.6440   9.7447  19.0643  20.6550  20.9149
    26.5379

          k = 0.3985-0.1993 0.3985 (  1467 PWs)   bands (ev):

   -89.4398  -5.9585   4.3500   8.5861  10.0958  19.5998  21.0407  22.0037
    25.6108

          k = 0.2989-0.0996 0.2989 (  1469 PWs)   bands (ev):

   -89.4407  -6.9548   6.6131   8.7862  10.3271  20.4826  22.1703  23.3327
    24.5454

          k = 0.1993 0.0000 0.1993 (  1464 PWs)   bands (ev):

   -89.4415  -7.6804   8.5433   9.3383  10.3466  20.8210  23.8530  24.4937
    24.7283

          k = 0.0000 0.3985 0.0000 (  1471 PWs)   bands (ev):

   -89.4409  -7.1220   8.1964   8.8526   8.8526  21.2462  22.1432  23.8387
    25.6481

          k =-0.0996 0.4982-0.0996 (  1469 PWs)   bands (ev):

   -89.4401  -6.3959   6.4571   8.4432   8.5318  20.2198  22.1645  23.3591
    25.1649

          k =-0.1993 0.5978-0.1993 (  1472 PWs)   bands (ev):

   -89.4394  -5.4108   4.4403   7.8845   8.3264  19.6123  21.5199  23.9898
    24.5793

          k = 0.6974-0.2989 0.6974 (  1474 PWs)   bands (ev):

   -89.4389  -4.5042   2.9166   7.1417   8.5330  19.2491  21.5587  22.7607
    25.8153

          k = 0.5978-0.1993 0.5978 (  1485 PWs)   bands (ev):

   -89.4388  -4.3623   2.7505   6.5967   9.0187  19.2280  21.8102  22.0846
    25.9974

          k = 0.4982-0.0996 0.4982 (  1477 PWs)   bands (ev):

   -89.4392  -5.1346   4.0971   6.4194   9.6468  19.6215  21.3085  22.8561
    25.1267

          k = 0.3985 0.0000 0.3985 (  1478 PWs)   bands (ev):

   -89.4399  -6.1425   5.8013   7.0042  10.1733  20.2731  21.3939  23.3841
    24.2237

          k = 0.0000 0.5978 0.0000 (  1471 PWs)   bands (ev):

   -89.4396  -5.7821   5.8155   7.8387   7.8387  19.2854  21.7514  23.8916
    26.1154

          k =-0.0996 0.6974-0.0996 (  1475 PWs)   bands (ev):

   -89.4390  -4.8861   4.3573   7.1318   7.5593  18.9070  21.5009  24.4115
    25.8505

          k = 0.7971-0.1993 0.7971 (  1476 PWs)   bands (ev):

   -89.4385  -3.9762   3.1836   5.9968   7.6596  18.8291  22.3752  24.8082
    24.9226

          k = 0.6974-0.0996 0.6974 (  1488 PWs)   bands (ev):

   -89.4384  -3.6465   3.0497   4.9474   8.1256  18.8950  23.4750  23.5196
    25.2233

          k = 0.5978 0.0000 0.5978 (  1490 PWs)   bands (ev):

   -89.4387  -4.2090   4.2702   4.3406   8.8627  19.1975  22.2703  24.2734
    24.4247

          k = 0.0000 0.7971 0.0000 (  1480 PWs)   bands (ev):

   -89.4386  -4.1149   3.2028   7.1105   7.1105  18.3590  20.4842  25.5312
    26.7746

          k = 0.8967-0.0996 0.8967 (  1483 PWs)   bands (ev):

   -89.4383  -3.3691   2.3173   6.4251   7.0602  18.3883  20.8068  25.8192
    26.4490

          k = 0.7971 0.0000 0.7971 (  1476 PWs)   bands (ev):

   -89.4382  -3.1726   2.4409   5.2849   7.4179  18.6048  22.4422  25.2109
    25.6277

          k = 0.0000-0.9964 0.0000 (  1476 PWs)   bands (ev):

   -89.4382  -3.0540   1.7697   6.8500   6.8500  18.1052  20.0602  26.2275
    27.0841

          k =-0.1993 0.3985 0.0000 (  1468 PWs)   bands (ev):

   -89.4406  -6.8723   7.0812   8.2778   9.8094  21.1128  21.7352  23.4671
    24.8270

          k =-0.2989 0.4982-0.0996 (  1473 PWs)   bands (ev):

   -89.4398  -5.9539   5.1991   7.6008   9.5425  20.5288  20.8982  23.2220
    24.8268

          k = 0.5978-0.3985 0.7971 (  1476 PWs)   bands (ev):

   -89.4391  -4.9484   3.3181   7.4037   9.1341  20.0875  20.3908  22.5027
    25.7960

          k = 0.4982-0.2989 0.6974 (  1482 PWs)   bands (ev):

   -89.4389  -4.4407   2.4847   7.3788   8.9341  19.8012  20.4526  22.0836
    26.2986

          k =-0.1993 0.5978-0.0000 (  1469 PWs)   bands (ev):

   -89.4395  -5.5819   5.3412   7.1644   8.3830  19.6894  22.4000  22.8304
    25.5739

          k = 0.6974-0.2989 0.8967 (  1473 PWs)   bands (ev):

   -89.4389  -4.6012   3.9226   6.2879   8.0459  19.6701  22.0768  23.3134
    25.3245

          k = 0.5978-0.1993 0.7971 (  1482 PWs)   bands (ev):

   -89.4386  -3.9109   3.0005   5.6756   8.0239  19.7535  21.8449  23.5473
    25.4565

          k = 0.4982-0.0996 0.6974 (  1488 PWs)   bands (ev):

   -89.4386  -4.1265   3.4426   5.3219   8.4351  20.0205  21.4228  23.6236
    25.2338

          k = 0.3985 0.0000 0.5978 (  1481 PWs)   bands (ev):

   -89.4391  -5.0158   4.6617   5.7285   9.0653  20.4227  20.9883  23.4534
    24.8275

          k = 0.7971-0.1993 0.9964 (  1482 PWs)   bands (ev):

   -89.4385  -4.0155   3.2939   6.3775   7.2337  18.9304  21.5170  24.5199
    26.1658

          k = 0.6974-0.0996 0.8967 (  1478 PWs)   bands (ev):

   -89.4383  -3.3594   2.8132   5.2836   7.2159  19.2906  22.6391  24.1349
    25.5424

          k = 0.5978 0.0000 0.7971 (  1477 PWs)   bands (ev):

   -89.4383  -3.4346   3.4057   4.3119   7.6793  19.6190  22.9157  24.1974
    24.8059

          k =-0.1993-0.9964-0.0000 (  1484 PWs)   bands (ev):

   -89.4382  -3.0716   2.1067   6.0981   6.8539  18.7226  21.1898  25.7759
    25.9131

          k = 0.5978-0.1993 0.9964 (  1476 PWs)   bands (ev):

   -89.4385  -3.7559   3.6338   4.8522   7.5058  20.5482  21.9709  23.4162
    25.2951

          k = 0.4982-0.0996 0.8967 (  1478 PWs)   bands (ev):

   -89.4383  -3.3539   3.4983   4.2924   7.2412  21.2346  21.4891  24.2488
    24.6835

          k =-0.3985-0.9964 0.0000 (  1480 PWs)   bands (ev):

   -89.4382  -3.1000   3.0805   4.5449   6.8600  20.4707  23.0879  23.3663
    24.9900

     the Fermi energy is     9.1327 ev

!    total energy              =     -48.65019209 Ry
     estimated scf accuracy    <          5.7E-11 Ry
     smearing contrib. (-TS)   =      -0.00028276 Ry
     internal energy E=F+TS    =     -48.64990933 Ry

     The total energy is F=E-TS. E is the sum of the following terms:
     one-electron contribution =     -10.97901561 Ry
     hartree contribution      =       6.18543627 Ry
     xc contribution           =     -10.98312777 Ry
     ewald contribution        =     -32.87320222 Ry

     convergence has been achieved in   7 iterations

     Forces acting on atoms (cartesian axes, Ry/au):

     atom    1 type  1   force =    -0.00000000   -0.00000000   -0.00000000
     atom    2 type  2   force =     0.00000000    0.00000000    0.00000000

     Total force =     0.000000     Total SCF correction =     0.000000


     Computing stress (Cartesian axis) and pressure

          total   stress  (Ry/bohr**3)                   (kbar)     P=       -0.00
  -0.00000001   0.00000000  -0.00000000           -0.00        0.00       -0.00
   0.00000000  -0.00000001   0.00000000            0.00       -0.00        0.00
  -0.00000000   0.00000000  -0.00000001           -0.00        0.00       -0.00


     Writing all to output data dir ./tmp/BeN-relax.save/ :
     XML data file, charge density, pseudopotentials, collected wavefunctions

     init_run     :      1.12s CPU      1.18s WALL (       2 calls)
     electrons    :     13.44s CPU     14.68s WALL (       6 calls)
     update_pot   :      0.03s CPU      0.04s WALL (       4 calls)
     forces       :      0.31s CPU      0.34s WALL (       6 calls)
     stress       :      1.23s CPU      1.29s WALL (       6 calls)

     Called by init_run:
     wfcinit      :      0.53s CPU      0.58s WALL (       2 calls)
     potinit      :      0.20s CPU      0.20s WALL (       2 calls)
     hinit0       :      0.37s CPU      0.37s WALL (       2 calls)

     Called by electrons:
     c_bands      :     11.50s CPU     12.54s WALL (      25 calls)
     sum_band     :      1.78s CPU      1.95s WALL (      25 calls)
     v_of_rho     :      0.20s CPU      0.22s WALL (      26 calls)
     mix_rho      :      0.01s CPU      0.02s WALL (      25 calls)

     Called by c_bands:
     init_us_2    :      0.41s CPU      0.47s WALL (    3008 calls)
     cegterg      :     11.13s CPU     12.13s WALL (    1175 calls)

     Called by *egterg:
     cdiaghg      :      0.15s CPU      0.18s WALL (    3339 calls)
     h_psi        :      9.44s CPU     10.31s WALL (    3856 calls)
     g_psi        :      0.06s CPU      0.08s WALL (    2587 calls)

     Called by h_psi:
     h_psi:calbec :      0.54s CPU      0.58s WALL (    3856 calls)
     vloc_psi     :      8.34s CPU      9.12s WALL (    3856 calls)
                                        0.00s GPU  (    3856 calls)
     add_vuspsi   :      0.47s CPU      0.54s WALL (    3856 calls)

     General routines
     calbec       :      1.26s CPU      1.39s WALL (    8650 calls)
     fft          :      0.10s CPU      0.11s WALL (     413 calls)
     ffts         :      0.01s CPU      0.01s WALL (      25 calls)
     fftw         :      8.33s CPU      9.61s WALL (   65179 calls)


     PWSCF        :     16.20s CPU     17.62s WALL


   This run was terminated on:  19:53:45  20Dec2025            

=------------------------------------------------------------------------------=
   JOB DONE.
=------------------------------------------------------------------------------=
