
     Program PWSCF v.7.5 starts on 10Jan2026 at 19:18:58 

     This program is part of the open-source Quantum ESPRESSO suite
     for quantum simulation of materials; please cite
         "P. Giannozzi et al., J. Phys.:Condens. Matter 21 395502 (2009);
         "P. Giannozzi et al., J. Phys.:Condens. Matter 29 465901 (2017);
         "P. Giannozzi et al., J. Chem. Phys. 152 154105 (2020);
          URL http://www.quantum-espresso.org", 
     in publications or presentations arising from this work. More details at
     http://www.quantum-espresso.org/quote

     Serial version
     1138 MiB available memory on the printing compute node when the environment starts

     Waiting for input...
     Reading input from standard input

     Current dimensions of program PWSCF are:
     Max number of different atomic species (ntypx) = 10
     Max number of k-points (npk) =  40000
     Max angular momentum in pseudopotentials (lmaxx) =  4


     G-vector sticks info
     --------------------
     sticks:   dense  smooth     PW     G-vecs:    dense   smooth      PW
     Sum         379     379    121                 6657     6657    1191

     Using Slab Decomposition



     bravais-lattice index     =            4
     lattice parameter (alat)  =       5.8260  a.u.
     unit-cell volume          =     195.5883 (a.u.)^3
     number of atoms/cell      =            3
     number of atomic types    =            2
     number of electrons       =        16.00
     number of Kohn-Sham states=           12
     kinetic-energy cutoff     =      40.0000  Ry
     charge density cutoff     =     160.0000  Ry
     scf convergence threshold =      1.0E-06
     mixing beta               =       0.7000
     number of iterations used =            8  plain     mixing
     Exchange-correlation= PBE
                           (   1   4   3   4   0   0   0)

     celldm(1)=   5.826038  celldm(2)=   0.000000  celldm(3)=   1.142069
     celldm(4)=   0.000000  celldm(5)=   0.000000  celldm(6)=   0.000000

     crystal axes: (cart. coord. in units of alat)
               a(1) = (   1.000000   0.000000   0.000000 )  
               a(2) = (  -0.500000   0.866025   0.000000 )  
               a(3) = (   0.000000   0.000000   1.142069 )  

     reciprocal axes: (cart. coord. in units 2 pi/alat)
               b(1) = (  1.000000  0.577350 -0.000000 )  
               b(2) = (  0.000000  1.154701  0.000000 )  
               b(3) = (  0.000000 -0.000000  0.875604 )  


     PseudoPot. # 1 for Mg read from file:
     ./PSEUDO/Mg_ONCV_PBE_sr.upf
     MD5 check sum: f927bdb32a17e5444945ae8f6d999e45
     Pseudo is Norm-conserving, Zval = 10.0
     Generated using ONCVPSP code by D. R. Hamann
     Using radial grid of 1510 points,  4 beta functions with: 
                l(1) =   0
                l(2) =   0
                l(3) =   1
                l(4) =   1

     PseudoPot. # 2 for B  read from file:
     ./PSEUDO/B_ONCV_PBE_sr.upf
     MD5 check sum: 12e13f68e8dc593c0a1d43390bab284b
     Pseudo is Norm-conserving + core correction, Zval =  3.0
     Generated using ONCVPSP code by D. R. Hamann
     Using radial grid of 1534 points,  4 beta functions with: 
                l(1) =   0
                l(2) =   0
                l(3) =   1
                l(4) =   1

     atomic species   valence    mass     pseudopotential
     Mg               10.00    24.30500     Mg( 1.00)
     B                 3.00    10.81100     B ( 1.00)

     24 Sym. Ops., with inversion, found



   Cartesian axes

     site n.     atom                  positions (alat units)
         1        Mg     tau(   1) = (   0.0000000   0.0000000   0.0000000  )
         2        B      tau(   2) = (   0.0000000   0.5773503   0.5710347  )
         3        B      tau(   3) = (   0.5000000   0.2886751   0.5710347  )

     number of k points=    50  Gaussian smearing, width (Ry)=  0.0400
                       cart. coord. in units 2pi/alat
        k(    1) = (   0.0000000   0.0000000   0.0000000), wk =   0.0039062
        k(    2) = (   0.0000000   0.0000000   0.1094504), wk =   0.0078125
        k(    3) = (   0.0000000   0.0000000   0.2189009), wk =   0.0078125
        k(    4) = (   0.0000000   0.0000000   0.3283513), wk =   0.0078125
        k(    5) = (   0.0000000   0.0000000  -0.4378018), wk =   0.0039062
        k(    6) = (   0.0000000   0.1443376   0.0000000), wk =   0.0234375
        k(    7) = (   0.0000000   0.1443376   0.1094504), wk =   0.0468750
        k(    8) = (   0.0000000   0.1443376   0.2189009), wk =   0.0468750
        k(    9) = (   0.0000000   0.1443376   0.3283513), wk =   0.0468750
        k(   10) = (   0.0000000   0.1443376  -0.4378018), wk =   0.0234375
        k(   11) = (   0.0000000   0.2886751   0.0000000), wk =   0.0234375
        k(   12) = (   0.0000000   0.2886751   0.1094504), wk =   0.0468750
        k(   13) = (   0.0000000   0.2886751   0.2189009), wk =   0.0468750
        k(   14) = (   0.0000000   0.2886751   0.3283513), wk =   0.0468750
        k(   15) = (   0.0000000   0.2886751  -0.4378018), wk =   0.0234375
        k(   16) = (   0.0000000   0.4330127   0.0000000), wk =   0.0234375
        k(   17) = (   0.0000000   0.4330127   0.1094504), wk =   0.0468750
        k(   18) = (   0.0000000   0.4330127   0.2189009), wk =   0.0468750
        k(   19) = (   0.0000000   0.4330127   0.3283513), wk =   0.0468750
        k(   20) = (   0.0000000   0.4330127  -0.4378018), wk =   0.0234375
        k(   21) = (   0.0000000  -0.5773503   0.0000000), wk =   0.0117188
        k(   22) = (   0.0000000  -0.5773503   0.1094504), wk =   0.0234375
        k(   23) = (   0.0000000  -0.5773503   0.2189009), wk =   0.0234375
        k(   24) = (   0.0000000  -0.5773503   0.3283513), wk =   0.0234375
        k(   25) = (   0.0000000  -0.5773503  -0.4378018), wk =   0.0117188
        k(   26) = (   0.1250000   0.2165064   0.0000000), wk =   0.0234375
        k(   27) = (   0.1250000   0.2165064   0.1094504), wk =   0.0468750
        k(   28) = (   0.1250000   0.2165064   0.2189009), wk =   0.0468750
        k(   29) = (   0.1250000   0.2165064   0.3283513), wk =   0.0468750
        k(   30) = (   0.1250000   0.2165064  -0.4378018), wk =   0.0234375
        k(   31) = (   0.1250000   0.3608439   0.0000000), wk =   0.0468750
        k(   32) = (   0.1250000   0.3608439   0.1094504), wk =   0.0937500
        k(   33) = (   0.1250000   0.3608439   0.2189009), wk =   0.0937500
        k(   34) = (   0.1250000   0.3608439   0.3283513), wk =   0.0937500
        k(   35) = (   0.1250000   0.3608439  -0.4378018), wk =   0.0468750
        k(   36) = (   0.1250000   0.5051815   0.0000000), wk =   0.0468750
        k(   37) = (   0.1250000   0.5051815   0.1094504), wk =   0.0937500
        k(   38) = (   0.1250000   0.5051815   0.2189009), wk =   0.0937500
        k(   39) = (   0.1250000   0.5051815   0.3283513), wk =   0.0937500
        k(   40) = (   0.1250000   0.5051815  -0.4378018), wk =   0.0468750
        k(   41) = (   0.2500000   0.4330127   0.0000000), wk =   0.0234375
        k(   42) = (   0.2500000   0.4330127   0.1094504), wk =   0.0468750
        k(   43) = (   0.2500000   0.4330127   0.2189009), wk =   0.0468750
        k(   44) = (   0.2500000   0.4330127   0.3283513), wk =   0.0468750
        k(   45) = (   0.2500000   0.4330127  -0.4378018), wk =   0.0234375
        k(   46) = (   0.2500000   0.5773503   0.0000000), wk =   0.0234375
        k(   47) = (   0.2500000   0.5773503   0.1094504), wk =   0.0468750
        k(   48) = (   0.2500000   0.5773503   0.2189009), wk =   0.0468750
        k(   49) = (   0.2500000   0.5773503   0.3283513), wk =   0.0468750
        k(   50) = (   0.2500000   0.5773503  -0.4378018), wk =   0.0234375

     Dense  grid:     6657 G-vectors     FFT dimensions: (  24,  24,  27)

     Estimated max dynamical RAM per process >      13.38 MB

     Initial potential from superposition of free atoms

     starting charge      15.9987, renormalised to      16.0000
     Starting wfcs are   13 randomized atomic wfcs

     total cpu time spent up to now is        0.3 secs

     Self-consistent Calculation

     iteration #  1     ecut=    40.00 Ry     beta= 0.70
     Davidson diagonalization with overlap
     ethr =  1.00E-02,  avg # of iterations =  4.0

     total cpu time spent up to now is        0.8 secs

     total energy              =    -129.25933373 Ry
     estimated scf accuracy    <       0.48089767 Ry

     iteration #  2     ecut=    40.00 Ry     beta= 0.70
     Davidson diagonalization with overlap
     ethr =  3.01E-03,  avg # of iterations =  2.4

     total cpu time spent up to now is        1.2 secs

     total energy              =    -129.37301424 Ry
     estimated scf accuracy    <       0.06031146 Ry

     iteration #  3     ecut=    40.00 Ry     beta= 0.70
     Davidson diagonalization with overlap
     ethr =  3.77E-04,  avg # of iterations =  2.3

     total cpu time spent up to now is        1.6 secs

     total energy              =    -129.38606970 Ry
     estimated scf accuracy    <       0.00111977 Ry

     iteration #  4     ecut=    40.00 Ry     beta= 0.70
     Davidson diagonalization with overlap
     ethr =  7.00E-06,  avg # of iterations =  5.3

     total cpu time spent up to now is        2.1 secs

     total energy              =    -129.38621602 Ry
     estimated scf accuracy    <       0.00003890 Ry

     iteration #  5     ecut=    40.00 Ry     beta= 0.70
     Davidson diagonalization with overlap
     ethr =  2.43E-07,  avg # of iterations =  1.9

     total cpu time spent up to now is        2.5 secs

     End of self-consistent calculation

          k = 0.0000 0.0000 0.0000 (   823 PWs)   bands (ev):

   -70.1203 -33.2175 -33.1820 -33.1820  -3.2343   6.4271   9.6694   9.6694
    10.7855  15.7108  15.7108  17.3435

          k = 0.0000 0.0000 0.1095 (   841 PWs)   bands (ev):

   -70.1273 -33.3754 -33.3754 -33.3691  -3.0929   5.3978   9.7212   9.7212
    12.1242  15.7450  15.7450  17.3359

          k = 0.0000 0.0000 0.2189 (   823 PWs)   bands (ev):

   -70.1187 -33.2013 -33.2013 -33.0794  -2.6919   3.7164   9.8576   9.8576
    14.7264  15.8375  15.8375  17.3208

          k = 0.0000 0.0000 0.3284 (   842 PWs)   bands (ev):

   -70.1264 -33.4074 -33.3432 -33.3432  -2.1585   2.3125   9.9892   9.9892
    15.9217  15.9217  17.2830  17.5525

          k = 0.0000 0.0000-0.4378 (   830 PWs)   bands (ev):

   -70.1211 -33.3644 -33.1655 -33.1655  -1.8522   1.7087  10.0543  10.0543
    15.9639  15.9639  17.2679  19.1038

          k = 0.0000 0.1443 0.0000 (   826 PWs)   bands (ev):

   -70.1207 -33.3035 -33.1884 -33.1591  -2.9561   6.6888   8.4059   9.1053
    11.0609  15.3596  16.8394  18.3645

          k = 0.0000 0.1443 0.1095 (   823 PWs)   bands (ev):

   -70.1190 -33.1899 -33.1753 -33.1599  -2.8165   5.6746   8.4681   9.1539
    12.3739  15.4395  16.8783  17.3255

          k = 0.0000 0.1443 0.2189 (   824 PWs)   bands (ev):

   -70.1182 -33.2272 -33.1959 -33.0786  -2.4243   4.0087   8.6309   9.2724
    14.8296  15.7357  16.4964  16.9732

          k = 0.0000 0.1443 0.3284 (   831 PWs)   bands (ev):

   -70.1208 -33.2930 -33.2910 -33.1260  -1.9010   2.6281   8.8059   9.3921
    15.6141  15.9365  17.0774  17.8425

          k = 0.0000 0.1443-0.4378 (   844 PWs)   bands (ev):

   -70.1264 -33.4865 -33.3487 -33.3019  -1.6113   2.0321   8.8803   9.4438
    15.4756  15.9294  17.1247  19.3851

          k = 0.0000 0.2887 0.0000 (   830 PWs)   bands (ev):

   -70.1202 -33.2884 -33.2768 -33.1563  -2.1320   5.9132   7.4549   8.1299
    11.8640  14.5220  16.1695  18.6081

          k = 0.0000 0.2887 0.1095 (   833 PWs)   bands (ev):

   -70.1211 -33.3271 -33.2811 -33.1941  -1.9997   5.9874   6.4889   8.1690
    13.0502  14.6291  15.4243  19.4607

          k = 0.0000 0.2887 0.2189 (   836 PWs)   bands (ev):

   -70.1222 -33.3779 -33.2844 -33.2272  -1.6301   4.8718   6.2042   8.2685
    13.7159  14.9417  15.9827  19.5717

          k = 0.0000 0.2887 0.3284 (   829 PWs)   bands (ev):

   -70.1183 -33.2819 -33.1830 -33.1513  -1.1416   3.5469   6.4459   8.3767
    12.8767  15.3538  18.4055  19.6992

          k = 0.0000 0.2887-0.4378 (   836 PWs)   bands (ev):

   -70.1208 -33.3679 -33.2712 -33.1806  -0.8777   2.9895   6.5557   8.4239
    12.5249  15.5586  19.1348  19.7717

          k = 0.0000 0.4330 0.0000 (   850 PWs)   bands (ev):

   -70.1269 -33.5226 -33.4372 -33.3872  -0.7937   3.3607   7.4044   8.6246
    12.8931  13.7952  14.1257  17.4034

          k = 0.0000 0.4330 0.1095 (   840 PWs)   bands (ev):

   -70.1225 -33.4457 -33.2976 -33.2703  -0.6705   3.4609   7.4458   7.7461
    12.5500  13.8451  14.8661  18.4245

          k = 0.0000 0.4330 0.2189 (   839 PWs)   bands (ev):

   -70.1218 -33.4051 -33.3260 -33.2329  -0.3322   3.7208   6.2410   7.5385
    11.1897  14.3470  17.0453  19.6150

          k = 0.0000 0.4330 0.3284 (   840 PWs)   bands (ev):

   -70.1217 -33.4856 -33.2751 -33.2111   0.0992   4.0268   5.0023   7.6367
    10.0894  14.8893  18.4477  19.1627

          k = 0.0000 0.4330-0.4378 (   828 PWs)   bands (ev):

   -70.1159 -33.3638 -33.1504 -33.0344   0.3300   4.1791   4.4960   7.6809
     9.6730  15.1946  18.1457  18.8416

          k = 0.0000-0.5774 0.0000 (   848 PWs)   bands (ev):

   -70.1250 -33.5145 -33.4186 -33.3172   0.7643   1.3784   7.1529   9.5116
    12.4571  13.1526  14.8060  16.0793

          k = 0.0000-0.5774 0.1095 (   842 PWs)   bands (ev):

   -70.1223 -33.4139 -33.3748 -33.2601   0.8724   1.4966   7.1897   8.7597
    11.2152  13.6273  15.8888  17.1604

          k = 0.0000-0.5774 0.2189 (   844 PWs)   bands (ev):

   -70.1230 -33.4239 -33.3714 -33.3079   1.1552   1.8155   7.2813   7.4105
     9.5765  14.1300  18.1837  18.6106

          k = 0.0000-0.5774 0.3284 (   822 PWs)   bands (ev):

   -70.1132 -33.1788 -33.1292 -33.0653   1.5098   2.2082   6.3137   7.3794
     8.3363  14.7156  18.2312  18.9395

          k = 0.0000-0.5774-0.4378 (   820 PWs)   bands (ev):

   -70.1124 -33.1575 -33.1547 -32.9958   1.6900   2.4054   5.8723   7.4223
     7.8479  15.0594  17.7692  18.6045

          k = 0.1250 0.2165 0.0000 (   830 PWs)   bands (ev):

   -70.1208 -33.2868 -33.2231 -33.2214  -2.4052   6.9410   7.2067   7.8495
    11.6429  15.8277  16.7334  16.8676

          k = 0.1250 0.2165 0.1095 (   834 PWs)   bands (ev):

   -70.1222 -33.3486 -33.2710 -33.2261  -2.2705   6.2133   7.0124   7.9093
    12.9104  15.7920  15.9315  17.3271

          k = 0.1250 0.2165 0.2189 (   830 PWs)   bands (ev):

   -70.1197 -33.2639 -33.2342 -33.1816  -1.8922   4.5884   7.2018   8.0481
    14.6580  15.2899  16.3198  17.5944

          k = 0.1250 0.2165 0.3284 (   830 PWs)   bands (ev):

   -70.1193 -33.2638 -33.2319 -33.1631  -1.3945   3.2436   7.4150   8.1895
    13.7994  16.3422  17.7734  17.8973

          k = 0.1250 0.2165-0.4378 (   832 PWs)   bands (ev):

   -70.1200 -33.3996 -33.2192 -33.1041  -1.1219   2.6757   7.5138   8.2508
    13.4737  16.5405  17.8472  17.9839

          k = 0.1250 0.3608 0.0000 (   834 PWs)   bands (ev):

   -70.1203 -33.3922 -33.2620 -33.1583  -1.3236   4.7070   6.6628   8.1947
    12.7332  14.7129  15.3755  17.6066

          k = 0.1250 0.3608 0.1095 (   837 PWs)   bands (ev):

   -70.1215 -33.4315 -33.2722 -33.2064  -1.1973   4.7904   6.7144   7.2795
    13.5829  14.0859  15.6495  18.2363

          k = 0.1250 0.3608 0.2189 (   834 PWs)   bands (ev):

   -70.1200 -33.4066 -33.2584 -33.1359  -0.8461   5.0189   5.7153   6.8806
    12.3535  15.7256  16.3960  18.2579

          k = 0.1250 0.3608 0.3284 (   835 PWs)   bands (ev):

   -70.1197 -33.3815 -33.2409 -33.1736  -0.3932   4.4374   5.2911   7.0420
    11.3383  16.0509  16.7660  19.4394

          k = 0.1250 0.3608-0.4378 (   840 PWs)   bands (ev):

   -70.1214 -33.4467 -33.2635 -33.2306  -0.1505   3.9104   5.4165   7.1133
    10.9486  16.0818  16.5802  19.8591

          k = 0.1250 0.5052 0.0000 (   840 PWs)   bands (ev):

   -70.1212 -33.4685 -33.3145 -33.1788   0.2386   2.3771   6.1077   9.4324
    12.7338  14.0298  14.9435  16.7619

          k = 0.1250 0.5052 0.1095 (   840 PWs)   bands (ev):

   -70.1214 -33.4494 -33.3245 -33.1970   0.3524   2.4800   6.1695   8.6171
    11.6709  14.8491  15.6499  17.4272

          k = 0.1250 0.5052 0.2189 (   838 PWs)   bands (ev):

   -70.1203 -33.4376 -33.2890 -33.1726   0.6648   2.7589   6.3228   7.2023
    10.1506  15.2981  16.8579  18.1663

          k = 0.1250 0.5052 0.3284 (   834 PWs)   bands (ev):

   -70.1184 -33.3561 -33.2644 -33.1430   1.0556   3.0960   6.0358   6.5002
     8.9936  15.3145  16.4108  20.6241

          k = 0.1250 0.5052-0.4378 (   832 PWs)   bands (ev):

   -70.1176 -33.3084 -33.2774 -33.1116   1.2571   3.2617   5.5719   6.5743
     8.5423  15.1711  16.3558  21.6083

          k = 0.2500 0.4330 0.0000 (   846 PWs)   bands (ev):

   -70.1234 -33.4292 -33.3757 -33.3345  -0.0121   3.6014   4.6920   9.3590
    13.0268  14.0432  16.3682  17.4128

          k = 0.2500 0.4330 0.1095 (   843 PWs)   bands (ev):

   -70.1223 -33.4629 -33.3283 -33.2573   0.1023   3.6916   4.7741   8.5016
    12.1522  15.1564  16.7637  17.3241

          k = 0.2500 0.4330 0.2189 (   837 PWs)   bands (ev):

   -70.1196 -33.3481 -33.2894 -33.2117   0.4251   3.9341   4.9903   7.0396
    10.7771  15.2477  17.4281  18.7086

          k = 0.2500 0.4330 0.3284 (   837 PWs)   bands (ev):

   -70.1195 -33.4030 -33.3257 -33.1197   0.8261   4.2248   5.2339   5.8445
     9.7163  14.1512  18.6509  19.4826

          k = 0.2500 0.4330-0.4378 (   840 PWs)   bands (ev):

   -70.1210 -33.4341 -33.3390 -33.1881   1.0337   4.3672   5.3480   5.3591
     9.3066  13.7410  18.8518  19.7076

          k = 0.2500 0.5774 0.0000 (   832 PWs)   bands (ev):

   -70.1165 -33.2455 -33.2173 -33.1802   1.4880   2.0606   4.0978  10.4129
    11.7824  15.2891  15.6284  17.6265

          k = 0.2500 0.5774 0.1095 (   833 PWs)   bands (ev):

   -70.1168 -33.3255 -33.2000 -33.1474   1.5875   2.1649   4.1847   9.6301
    10.8979  16.2832  16.3813  16.6555

          k = 0.2500 0.5774 0.2189 (   837 PWs)   bands (ev):

   -70.1189 -33.3130 -33.3061 -33.2103   1.8563   2.4486   4.4172   8.2668
     9.4693  14.5833  18.1681  18.5890

          k = 0.2500 0.5774 0.3284 (   840 PWs)   bands (ev):

   -70.1203 -33.3526 -33.3427 -33.2417   2.1924   2.7911   4.6852   7.1605
     8.3449  13.3626  18.8970  20.9206

          k = 0.2500 0.5774-0.4378 (   830 PWs)   bands (ev):

   -70.1161 -33.2549 -33.2198 -33.1408   2.3651   2.9615   4.8103   6.7286
     7.9090  12.9178  19.1024  22.1013

     the Fermi energy is     9.3122 ev

!    total energy              =    -129.38621893 Ry
     estimated scf accuracy    <       0.00000067 Ry
     smearing contrib. (-TS)   =      -0.00705954 Ry
     internal energy E=F+TS    =    -129.37915939 Ry

     The total energy is F=E-TS. E is the sum of the following terms:
     one-electron contribution =     -73.61512442 Ry
     hartree contribution      =      38.63978847 Ry
     xc contribution           =     -20.50215854 Ry
     ewald contribution        =     -73.90166490 Ry

     convergence has been achieved in   5 iterations

     Forces acting on atoms (cartesian axes, Ry/au):

     atom    1 type  1   force =    -0.00000000   -0.00000000    0.00000000
     atom    2 type  2   force =     0.00000000    0.00000000    0.00000000
     atom    3 type  2   force =    -0.00000000   -0.00000000    0.00000000

     Total force =     0.000000     Total SCF correction =     0.000000


     Computing stress (Cartesian axis) and pressure

          total   stress  (Ry/bohr**3)                   (kbar)     P=    -3208.46
  -0.02183552   0.00000000   0.00000000        -3212.12        0.00        0.00
   0.00000000  -0.02183552  -0.00000000            0.00    -3212.12       -0.00
   0.00000000   0.00000000  -0.02176089            0.00        0.00    -3201.14


     Writing all to output data dir ./tmp/MgB2.save/ :
     XML data file, charge density, pseudopotentials, collected wavefunctions

     init_run     :      0.24s CPU      0.25s WALL (       1 calls)
     electrons    :      2.00s CPU      2.23s WALL (       1 calls)
     forces       :      0.05s CPU      0.05s WALL (       1 calls)
     stress       :      0.19s CPU      0.20s WALL (       1 calls)

     Called by init_run:
     wfcinit      :      0.15s CPU      0.16s WALL (       1 calls)
     potinit      :      0.03s CPU      0.03s WALL (       1 calls)
     hinit0       :      0.05s CPU      0.06s WALL (       1 calls)

     Called by electrons:
     c_bands      :      1.77s CPU      1.96s WALL (       5 calls)
     sum_band     :      0.22s CPU      0.25s WALL (       5 calls)
     v_of_rho     :      0.02s CPU      0.02s WALL (       6 calls)
     mix_rho      :      0.00s CPU      0.00s WALL (       5 calls)

     Called by c_bands:
     init_us_2    :      0.05s CPU      0.06s WALL (     650 calls)
     cegterg      :      1.71s CPU      1.90s WALL (     250 calls)

     Called by *egterg:
     cdiaghg      :      0.08s CPU      0.09s WALL (    1052 calls)
     h_psi        :      1.34s CPU      1.49s WALL (    1102 calls)
     g_psi        :      0.01s CPU      0.01s WALL (     802 calls)

     Called by h_psi:
     h_psi:calbec :      0.13s CPU      0.14s WALL (    1102 calls)
     vloc_psi     :      1.07s CPU      1.20s WALL (    1102 calls)
                                        0.00s GPU  (    1102 calls)
     add_vuspsi   :      0.12s CPU      0.13s WALL (    1102 calls)

     General routines
     calbec       :      0.28s CPU      0.30s WALL (    1952 calls)
     fft          :      0.01s CPU      0.01s WALL (      84 calls)
     ffts         :      0.00s CPU      0.00s WALL (       5 calls)
     fftw         :      1.04s CPU      1.22s WALL (   19710 calls)


     PWSCF        :      2.51s CPU      2.77s WALL


   This run was terminated on:  19:19: 0  10Jan2026            

=------------------------------------------------------------------------------=
   JOB DONE.
=------------------------------------------------------------------------------=
