
     Program PWSCF v.7.5 starts on 10Jan2026 at 19:19:15 

     This program is part of the open-source Quantum ESPRESSO suite
     for quantum simulation of materials; please cite
         "P. Giannozzi et al., J. Phys.:Condens. Matter 21 395502 (2009);
         "P. Giannozzi et al., J. Phys.:Condens. Matter 29 465901 (2017);
         "P. Giannozzi et al., J. Chem. Phys. 152 154105 (2020);
          URL http://www.quantum-espresso.org", 
     in publications or presentations arising from this work. More details at
     http://www.quantum-espresso.org/quote

     Serial version
     1113 MiB available memory on the printing compute node when the environment starts

     Waiting for input...
     Reading input from standard input

     Current dimensions of program PWSCF are:
     Max number of different atomic species (ntypx) = 10
     Max number of k-points (npk) =  40000
     Max angular momentum in pseudopotentials (lmaxx) =  4


     G-vector sticks info
     --------------------
     sticks:   dense  smooth     PW     G-vecs:    dense   smooth      PW
     Sum         931     931    271                26449    26449    4157

     Using Slab Decomposition



     bravais-lattice index     =            4
     lattice parameter (alat)  =       5.8260  a.u.
     unit-cell volume          =     195.5883 (a.u.)^3
     number of atoms/cell      =            3
     number of atomic types    =            2
     number of electrons       =        16.00
     number of Kohn-Sham states=           12
     kinetic-energy cutoff     =     100.0000  Ry
     charge density cutoff     =     400.0000  Ry
     scf convergence threshold =      1.0E-06
     mixing beta               =       0.7000
     number of iterations used =            8  plain     mixing
     Exchange-correlation= PBE
                           (   1   4   3   4   0   0   0)

     celldm(1)=   5.826038  celldm(2)=   0.000000  celldm(3)=   1.142069
     celldm(4)=   0.000000  celldm(5)=   0.000000  celldm(6)=   0.000000

     crystal axes: (cart. coord. in units of alat)
               a(1) = (   1.000000   0.000000   0.000000 )  
               a(2) = (  -0.500000   0.866025   0.000000 )  
               a(3) = (   0.000000   0.000000   1.142069 )  

     reciprocal axes: (cart. coord. in units 2 pi/alat)
               b(1) = (  1.000000  0.577350 -0.000000 )  
               b(2) = (  0.000000  1.154701  0.000000 )  
               b(3) = (  0.000000 -0.000000  0.875604 )  


     PseudoPot. # 1 for Mg read from file:
     ./PSEUDO/Mg_ONCV_PBE_sr.upf
     MD5 check sum: f927bdb32a17e5444945ae8f6d999e45
     Pseudo is Norm-conserving, Zval = 10.0
     Generated using ONCVPSP code by D. R. Hamann
     Using radial grid of 1510 points,  4 beta functions with: 
                l(1) =   0
                l(2) =   0
                l(3) =   1
                l(4) =   1

     PseudoPot. # 2 for B  read from file:
     ./PSEUDO/B_ONCV_PBE_sr.upf
     MD5 check sum: 12e13f68e8dc593c0a1d43390bab284b
     Pseudo is Norm-conserving + core correction, Zval =  3.0
     Generated using ONCVPSP code by D. R. Hamann
     Using radial grid of 1534 points,  4 beta functions with: 
                l(1) =   0
                l(2) =   0
                l(3) =   1
                l(4) =   1

     atomic species   valence    mass     pseudopotential
     Mg               10.00    24.30500     Mg( 1.00)
     B                 3.00    10.81100     B ( 1.00)

     24 Sym. Ops., with inversion, found



   Cartesian axes

     site n.     atom                  positions (alat units)
         1        Mg     tau(   1) = (   0.0000000   0.0000000   0.0000000  )
         2        B      tau(   2) = (   0.0000000   0.5773503   0.5710347  )
         3        B      tau(   3) = (   0.5000000   0.2886751   0.5710347  )

     number of k points=    50  Gaussian smearing, width (Ry)=  0.0400
                       cart. coord. in units 2pi/alat
        k(    1) = (   0.0000000   0.0000000   0.0000000), wk =   0.0039062
        k(    2) = (   0.0000000   0.0000000   0.1094504), wk =   0.0078125
        k(    3) = (   0.0000000   0.0000000   0.2189009), wk =   0.0078125
        k(    4) = (   0.0000000   0.0000000   0.3283513), wk =   0.0078125
        k(    5) = (   0.0000000   0.0000000  -0.4378018), wk =   0.0039062
        k(    6) = (   0.0000000   0.1443376   0.0000000), wk =   0.0234375
        k(    7) = (   0.0000000   0.1443376   0.1094504), wk =   0.0468750
        k(    8) = (   0.0000000   0.1443376   0.2189009), wk =   0.0468750
        k(    9) = (   0.0000000   0.1443376   0.3283513), wk =   0.0468750
        k(   10) = (   0.0000000   0.1443376  -0.4378018), wk =   0.0234375
        k(   11) = (   0.0000000   0.2886751   0.0000000), wk =   0.0234375
        k(   12) = (   0.0000000   0.2886751   0.1094504), wk =   0.0468750
        k(   13) = (   0.0000000   0.2886751   0.2189009), wk =   0.0468750
        k(   14) = (   0.0000000   0.2886751   0.3283513), wk =   0.0468750
        k(   15) = (   0.0000000   0.2886751  -0.4378018), wk =   0.0234375
        k(   16) = (   0.0000000   0.4330127   0.0000000), wk =   0.0234375
        k(   17) = (   0.0000000   0.4330127   0.1094504), wk =   0.0468750
        k(   18) = (   0.0000000   0.4330127   0.2189009), wk =   0.0468750
        k(   19) = (   0.0000000   0.4330127   0.3283513), wk =   0.0468750
        k(   20) = (   0.0000000   0.4330127  -0.4378018), wk =   0.0234375
        k(   21) = (   0.0000000  -0.5773503   0.0000000), wk =   0.0117188
        k(   22) = (   0.0000000  -0.5773503   0.1094504), wk =   0.0234375
        k(   23) = (   0.0000000  -0.5773503   0.2189009), wk =   0.0234375
        k(   24) = (   0.0000000  -0.5773503   0.3283513), wk =   0.0234375
        k(   25) = (   0.0000000  -0.5773503  -0.4378018), wk =   0.0117188
        k(   26) = (   0.1250000   0.2165064   0.0000000), wk =   0.0234375
        k(   27) = (   0.1250000   0.2165064   0.1094504), wk =   0.0468750
        k(   28) = (   0.1250000   0.2165064   0.2189009), wk =   0.0468750
        k(   29) = (   0.1250000   0.2165064   0.3283513), wk =   0.0468750
        k(   30) = (   0.1250000   0.2165064  -0.4378018), wk =   0.0234375
        k(   31) = (   0.1250000   0.3608439   0.0000000), wk =   0.0468750
        k(   32) = (   0.1250000   0.3608439   0.1094504), wk =   0.0937500
        k(   33) = (   0.1250000   0.3608439   0.2189009), wk =   0.0937500
        k(   34) = (   0.1250000   0.3608439   0.3283513), wk =   0.0937500
        k(   35) = (   0.1250000   0.3608439  -0.4378018), wk =   0.0468750
        k(   36) = (   0.1250000   0.5051815   0.0000000), wk =   0.0468750
        k(   37) = (   0.1250000   0.5051815   0.1094504), wk =   0.0937500
        k(   38) = (   0.1250000   0.5051815   0.2189009), wk =   0.0937500
        k(   39) = (   0.1250000   0.5051815   0.3283513), wk =   0.0937500
        k(   40) = (   0.1250000   0.5051815  -0.4378018), wk =   0.0468750
        k(   41) = (   0.2500000   0.4330127   0.0000000), wk =   0.0234375
        k(   42) = (   0.2500000   0.4330127   0.1094504), wk =   0.0468750
        k(   43) = (   0.2500000   0.4330127   0.2189009), wk =   0.0468750
        k(   44) = (   0.2500000   0.4330127   0.3283513), wk =   0.0468750
        k(   45) = (   0.2500000   0.4330127  -0.4378018), wk =   0.0234375
        k(   46) = (   0.2500000   0.5773503   0.0000000), wk =   0.0234375
        k(   47) = (   0.2500000   0.5773503   0.1094504), wk =   0.0468750
        k(   48) = (   0.2500000   0.5773503   0.2189009), wk =   0.0468750
        k(   49) = (   0.2500000   0.5773503   0.3283513), wk =   0.0468750
        k(   50) = (   0.2500000   0.5773503  -0.4378018), wk =   0.0234375

     Dense  grid:    26449 G-vectors     FFT dimensions: (  40,  40,  45)

     Estimated max dynamical RAM per process >      52.17 MB

     Initial potential from superposition of free atoms

     starting charge      15.9987, renormalised to      16.0000
     Starting wfcs are   13 randomized atomic wfcs

     total cpu time spent up to now is        1.0 secs

     Self-consistent Calculation

     iteration #  1     ecut=   100.00 Ry     beta= 0.70
     Davidson diagonalization with overlap
     ethr =  1.00E-02,  avg # of iterations =  4.2

     total cpu time spent up to now is        3.6 secs

     total energy              =    -130.49353596 Ry
     estimated scf accuracy    <       0.31086238 Ry

     iteration #  2     ecut=   100.00 Ry     beta= 0.70
     Davidson diagonalization with overlap
     ethr =  1.94E-03,  avg # of iterations =  2.6

     total cpu time spent up to now is        5.9 secs

     total energy              =    -130.57771692 Ry
     estimated scf accuracy    <       0.05093914 Ry

     iteration #  3     ecut=   100.00 Ry     beta= 0.70
     Davidson diagonalization with overlap
     ethr =  3.18E-04,  avg # of iterations =  2.5

     total cpu time spent up to now is        7.9 secs

     total energy              =    -130.58736805 Ry
     estimated scf accuracy    <       0.00034861 Ry

     iteration #  4     ecut=   100.00 Ry     beta= 0.70
     Davidson diagonalization with overlap
     ethr =  2.18E-06,  avg # of iterations =  6.3

     total cpu time spent up to now is       10.9 secs

     total energy              =    -130.58744763 Ry
     estimated scf accuracy    <       0.00001036 Ry

     iteration #  5     ecut=   100.00 Ry     beta= 0.70
     Davidson diagonalization with overlap
     ethr =  6.47E-08,  avg # of iterations =  2.1

     total cpu time spent up to now is       13.2 secs

     End of self-consistent calculation

          k = 0.0000 0.0000 0.0000 (  3285 PWs)   bands (ev):

   -66.0387 -32.8188 -32.8188 -32.8010  -3.2317   6.2588   9.5477   9.5477
    10.8757  15.5092  15.5092  17.2889

          k = 0.0000 0.0000 0.1095 (  3315 PWs)   bands (ev):

   -66.0387 -32.8187 -32.8187 -32.8020  -3.0971   5.2940   9.5982   9.5982
    12.1574  15.5564  15.5564  17.2666

          k = 0.0000 0.0000 0.2189 (  3297 PWs)   bands (ev):

   -66.0386 -32.8185 -32.8185 -32.8046  -2.7205   3.6786   9.7249   9.7249
    14.7121  15.6763  15.6763  17.2127

          k = 0.0000 0.0000 0.3284 (  3321 PWs)   bands (ev):

   -66.0385 -32.8184 -32.8184 -32.8072  -2.2216   2.3366   9.8591   9.8591
    15.8062  15.8062  17.1589  17.5212

          k = 0.0000 0.0000-0.4378 (  3334 PWs)   bands (ev):

   -66.0385 -32.8183 -32.8183 -32.8083  -1.9453   1.7699   9.9172   9.9172
    15.8634  15.8634  17.1366  19.0534

          k = 0.0000 0.1443 0.0000 (  3286 PWs)   bands (ev):

   -66.0382 -32.8245 -32.8202 -32.8001  -2.9595   6.5235   8.2835   8.9692
    11.1220  15.2614  16.6342  18.2009

          k = 0.0000 0.1443 0.1095 (  3296 PWs)   bands (ev):

   -66.0382 -32.8245 -32.8201 -32.8012  -2.8268   5.5666   8.3486   9.0169
    12.3785  15.3449  16.6846  17.1892

          k = 0.0000 0.1443 0.2189 (  3311 PWs)   bands (ev):

   -66.0381 -32.8243 -32.8199 -32.8037  -2.4563   3.9649   8.5102   9.1366
    14.7595  15.6708  16.3581  16.8135

          k = 0.0000 0.1443 0.3284 (  3301 PWs)   bands (ev):

   -66.0380 -32.8240 -32.8197 -32.8063  -1.9681   2.6379   8.6866   9.2632
    15.5116  15.7960  16.9539  17.8121

          k = 0.0000 0.1443-0.4378 (  3296 PWs)   bands (ev):

   -66.0380 -32.8240 -32.8196 -32.8074  -1.7000   2.0808   8.7653   9.3180
    15.3676  15.8167  17.0161  19.6947

          k = 0.0000 0.2887 0.0000 (  3294 PWs)   bands (ev):

   -66.0370 -32.8384 -32.8236 -32.7981  -2.1509   5.8059   7.3021   7.9810
    11.8438  14.5512  16.0225  18.4766

          k = 0.0000 0.2887 0.1095 (  3301 PWs)   bands (ev):

   -66.0370 -32.8383 -32.8235 -32.7991  -2.0238   5.8748   6.3865   8.0249
    12.9852  14.6204  15.3288  19.2460

          k = 0.0000 0.2887 0.2189 (  3307 PWs)   bands (ev):

   -66.0369 -32.8380 -32.8233 -32.8016  -1.6709   4.8045   6.1072   8.1346
    13.6189  14.8102  15.9968  19.3738

          k = 0.0000 0.2887 0.3284 (  3298 PWs)   bands (ev):

   -66.0368 -32.8378 -32.8231 -32.8041  -1.2129   3.5244   6.3439   8.2506
    12.7617  15.2438  18.4384  19.4030

          k = 0.0000 0.2887-0.4378 (  3314 PWs)   bands (ev):

   -66.0368 -32.8377 -32.8230 -32.8051  -0.9668   2.9940   6.4549   8.3007
    12.4135  15.4321  19.2383  19.6440

          k = 0.0000 0.4330 0.0000 (  3318 PWs)   bands (ev):

   -66.0358 -32.8522 -32.8269 -32.7961  -0.8336   3.2813   7.2615   8.5006
    12.7788  13.6364  14.1705  17.3795

          k = 0.0000 0.4330 0.1095 (  3308 PWs)   bands (ev):

   -66.0358 -32.8520 -32.8268 -32.7970  -0.7154   3.3759   7.3028   7.6264
    12.4519  13.7405  14.8684  18.3562

          k = 0.0000 0.4330 0.2189 (  3316 PWs)   bands (ev):

   -66.0357 -32.8517 -32.8266 -32.7994  -0.3897   3.6284   6.1394   7.4061
    11.0980  14.3152  16.9850  19.5250

          k = 0.0000 0.4330 0.3284 (  3293 PWs)   bands (ev):

   -66.0356 -32.8514 -32.8264 -32.8018   0.0244   3.9287   4.9218   7.5151
    10.0227  14.8050  18.6013  18.7317

          k = 0.0000 0.4330-0.4378 (  3300 PWs)   bands (ev):

   -66.0356 -32.8513 -32.8263 -32.8028   0.2405   4.0785   4.4213   7.5621
     9.6102  15.0547  18.3275  18.3806

          k = 0.0000-0.5774 0.0000 (  3314 PWs)   bands (ev):

   -66.0353 -32.8579 -32.8283 -32.7952   0.6633   1.3599   7.0081   9.4191
    12.2752  13.1080  14.5316  16.3097

          k = 0.0000-0.5774 0.1095 (  3314 PWs)   bands (ev):

   -66.0353 -32.8577 -32.8282 -32.7962   0.7698   1.4684   7.0485   8.6336
    11.0990  13.6221  15.6303  17.2930

          k = 0.0000-0.5774 0.2189 (  3296 PWs)   bands (ev):

   -66.0352 -32.8574 -32.8280 -32.7985   1.0634   1.7587   7.1497   7.2488
     9.5422  14.1277  17.9412  18.7333

          k = 0.0000-0.5774 0.3284 (  3282 PWs)   bands (ev):

   -66.0351 -32.8571 -32.8278 -32.8009   1.4366   2.1052   6.1059   7.2563
     8.3656  14.6407  18.3816  18.4757

          k = 0.0000-0.5774-0.4378 (  3296 PWs)   bands (ev):

   -66.0351 -32.8570 -32.8277 -32.8019   1.6308   2.2729   5.6433   7.3022
     7.9137  14.9135  17.9819  18.1246

          k = 0.1250 0.2165 0.0000 (  3299 PWs)   bands (ev):

   -66.0374 -32.8337 -32.8232 -32.7987  -2.4191   6.8265   7.0465   7.7168
    11.6668  15.8026  16.6293  16.7234

          k = 0.1250 0.2165 0.1095 (  3297 PWs)   bands (ev):

   -66.0373 -32.8336 -32.8231 -32.7997  -2.2902   6.1027   6.8999   7.7835
    12.8892  15.6778  15.9050  17.1775

          k = 0.1250 0.2165 0.2189 (  3304 PWs)   bands (ev):

   -66.0372 -32.8334 -32.8229 -32.8022  -1.9315   4.5297   7.0916   7.9209
    14.5384  15.1907  16.3068  17.4479

          k = 0.1250 0.2165 0.3284 (  3305 PWs)   bands (ev):

   -66.0372 -32.8331 -32.8227 -32.8047  -1.4638   3.2325   7.3095   8.0641
    13.6705  16.2035  17.6626  17.9592

          k = 0.1250 0.2165-0.4378 (  3310 PWs)   bands (ev):

   -66.0371 -32.8330 -32.8226 -32.8058  -1.2108   2.6934   7.4098   8.1264
    13.3429  16.3930  17.7550  17.8922

          k = 0.1250 0.3608 0.0000 (  3308 PWs)   bands (ev):

   -66.0362 -32.8461 -32.8280 -32.7966  -1.3555   4.6055   6.5374   8.0554
    12.6739  14.5795  15.3849  17.5427

          k = 0.1250 0.3608 0.1095 (  3305 PWs)   bands (ev):

   -66.0361 -32.8460 -32.8279 -32.7977  -1.2338   4.6913   6.5828   7.1741
    13.5030  13.9506  15.6873  18.1558

          k = 0.1250 0.3608 0.2189 (  3305 PWs)   bands (ev):

   -66.0361 -32.8457 -32.8277 -32.8001  -0.8976   4.9151   5.6301   6.7651
    12.2320  15.6162  16.4957  17.9733

          k = 0.1250 0.3608 0.3284 (  3304 PWs)   bands (ev):

   -66.0360 -32.8454 -32.8274 -32.8025  -0.4669   4.3779   5.1985   6.9219
    11.2078  16.0311  16.6798  19.2555

          k = 0.1250 0.3608-0.4378 (  3306 PWs)   bands (ev):

   -66.0359 -32.8453 -32.8273 -32.8035  -0.2398   3.8739   5.3224   6.9934
    10.8183  16.0947  16.4326  19.7278

          k = 0.1250 0.5052 0.0000 (  3312 PWs)   bands (ev):

   -66.0353 -32.8548 -32.8314 -32.7952   0.1757   2.3076   5.9889   9.3248
    12.5845  13.8915  14.8392  16.8587

          k = 0.1250 0.5052 0.1095 (  3314 PWs)   bands (ev):

   -66.0353 -32.8546 -32.8313 -32.7962   0.2872   2.4080   6.0489   8.4969
    11.5568  14.7534  15.5687  17.4728

          k = 0.1250 0.5052 0.2189 (  3301 PWs)   bands (ev):

   -66.0352 -32.8543 -32.8311 -32.7985   0.5929   2.6774   6.2008   7.0690
    10.0685  15.3211  16.8266  17.8979

          k = 0.1250 0.5052 0.3284 (  3303 PWs)   bands (ev):

   -66.0351 -32.8540 -32.8308 -32.8009   0.9771   3.0013   5.8876   6.3826
     8.9322  15.3923  16.2528  20.3604

          k = 0.1250 0.5052-0.4378 (  3298 PWs)   bands (ev):

   -66.0351 -32.8539 -32.8307 -32.8019   1.1747   3.1599   5.4183   6.4571
     8.4934  15.2357  16.2031  21.3004

          k = 0.2500 0.4330 0.0000 (  3319 PWs)   bands (ev):

   -66.0353 -32.8505 -32.8357 -32.7952  -0.0673   3.4947   4.6138   9.2411
    12.9189  13.9127  16.2293  17.5291

          k = 0.2500 0.4330 0.1095 (  3301 PWs)   bands (ev):

   -66.0353 -32.8504 -32.8356 -32.7962   0.0459   3.5878   4.6891   8.3840
    12.0282  15.0467  16.8266  17.1970

          k = 0.2500 0.4330 0.2189 (  3299 PWs)   bands (ev):

   -66.0352 -32.8501 -32.8353 -32.7985   0.3565   3.8389   4.8826   6.9250
    10.6290  15.3863  17.2594  18.5918

          k = 0.2500 0.4330 0.3284 (  3300 PWs)   bands (ev):

   -66.0351 -32.8498 -32.8351 -32.8009   0.7473   4.1423   5.0965   5.7391
     9.5489  14.3184  18.4583  19.3691

          k = 0.2500 0.4330-0.4378 (  3302 PWs)   bands (ev):

   -66.0351 -32.8497 -32.8350 -32.8019   0.9484   4.2911   5.2094   5.2452
     9.1325  13.9250  18.6377  19.5985

          k = 0.2500 0.5774 0.0000 (  3300 PWs)   bands (ev):

   -66.0350 -32.8508 -32.8404 -32.7946   1.3770   1.9950   4.0254  10.3149
    11.6675  15.0251  15.4704  17.8372

          k = 0.2500 0.5774 0.1095 (  3297 PWs)   bands (ev):

   -66.0350 -32.8507 -32.8403 -32.7956   1.4804   2.0967   4.1074   9.5005
    10.7760  16.1302  16.3697  16.5114

          k = 0.2500 0.5774 0.2189 (  3297 PWs)   bands (ev):

   -66.0349 -32.8504 -32.8400 -32.7979   1.7640   2.3703   4.3207   8.1031
     9.3373  14.7352  18.0366  18.3643

          k = 0.2500 0.5774 0.3284 (  3298 PWs)   bands (ev):

   -66.0348 -32.8501 -32.8397 -32.8003   2.1198   2.7000   4.5631   6.9706
     8.2079  13.5895  18.7324  20.6985

          k = 0.2500 0.5774-0.4378 (  3284 PWs)   bands (ev):

   -66.0348 -32.8500 -32.8396 -32.8012   2.3020   2.8613   4.6761   6.5186
     7.7658  13.1741  18.9147  21.9414

     the Fermi energy is     9.1962 ev

!    total energy              =    -130.58744987 Ry
     estimated scf accuracy    <       0.00000025 Ry
     smearing contrib. (-TS)   =      -0.00711394 Ry
     internal energy E=F+TS    =    -130.58033593 Ry

     The total energy is F=E-TS. E is the sum of the following terms:
     one-electron contribution =     -76.51074643 Ry
     hartree contribution      =      40.67368786 Ry
     xc contribution           =     -20.84161248 Ry
     ewald contribution        =     -73.90166488 Ry

     convergence has been achieved in   5 iterations

     Forces acting on atoms (cartesian axes, Ry/au):

     atom    1 type  1   force =     0.00000000    0.00000000    0.00000000
     atom    2 type  2   force =     0.00000000   -0.00000000    0.00000000
     atom    3 type  2   force =     0.00000000    0.00000000    0.00000000

     Total force =     0.000000     Total SCF correction =     0.000000


     Computing stress (Cartesian axis) and pressure

          total   stress  (Ry/bohr**3)                   (kbar)     P=       -6.42
  -0.00007121  -0.00000000   0.00000000          -10.48       -0.00        0.00
  -0.00000000  -0.00007121   0.00000000           -0.00      -10.48        0.00
   0.00000000   0.00000000   0.00001154            0.00        0.00        1.70


     Writing all to output data dir ./tmp/MgB2.save/ :
     XML data file, charge density, pseudopotentials, collected wavefunctions

     init_run     :      0.96s CPU      1.01s WALL (       1 calls)
     electrons    :     11.83s CPU     12.20s WALL (       1 calls)
     forces       :      0.25s CPU      0.26s WALL (       1 calls)
     stress       :      0.94s CPU      0.96s WALL (       1 calls)

     Called by init_run:
     wfcinit      :      0.80s CPU      0.84s WALL (       1 calls)
     potinit      :      0.06s CPU      0.07s WALL (       1 calls)
     hinit0       :      0.09s CPU      0.09s WALL (       1 calls)

     Called by electrons:
     c_bands      :     10.34s CPU     10.66s WALL (       5 calls)
     sum_band     :      1.39s CPU      1.44s WALL (       5 calls)
     v_of_rho     :      0.11s CPU      0.11s WALL (       6 calls)
     mix_rho      :      0.01s CPU      0.01s WALL (       5 calls)

     Called by c_bands:
     init_us_2    :      0.26s CPU      0.29s WALL (     650 calls)
     cegterg      :     10.09s CPU     10.38s WALL (     250 calls)

     Called by *egterg:
     cdiaghg      :      0.11s CPU      0.11s WALL (    1135 calls)
     h_psi        :      8.64s CPU      8.93s WALL (    1185 calls)
     g_psi        :      0.05s CPU      0.05s WALL (     885 calls)

     Called by h_psi:
     h_psi:calbec :      0.63s CPU      0.64s WALL (    1185 calls)
     vloc_psi     :      7.39s CPU      7.65s WALL (    1185 calls)
                                        0.00s GPU  (    1185 calls)
     add_vuspsi   :      0.56s CPU      0.57s WALL (    1185 calls)

     General routines
     calbec       :      1.39s CPU      1.41s WALL (    2035 calls)
     fft          :      0.06s CPU      0.06s WALL (      84 calls)
     ffts         :      0.00s CPU      0.00s WALL (       5 calls)
     fftw         :      7.68s CPU      7.94s WALL (   20392 calls)


     PWSCF        :     14.02s CPU     14.51s WALL


   This run was terminated on:  19:19:30  10Jan2026            

=------------------------------------------------------------------------------=
   JOB DONE.
=------------------------------------------------------------------------------=
