
     Program BANDS v.7.5 starts on 19Dec2025 at 23:44:53 

     This program is part of the open-source Quantum ESPRESSO suite
     for quantum simulation of materials; please cite
         "P. Giannozzi et al., J. Phys.:Condens. Matter 21 395502 (2009);
         "P. Giannozzi et al., J. Phys.:Condens. Matter 29 465901 (2017);
         "P. Giannozzi et al., J. Chem. Phys. 152 154105 (2020);
          URL http://www.quantum-espresso.org", 
     in publications or presentations arising from this work. More details at
     http://www.quantum-espresso.org/quote

     Serial version
     7487 MiB available memory on the printing compute node when the environment starts


     Reading xml data from directory:

     ./tmp/NaS.save/

     IMPORTANT: XC functional enforced from input :
     Exchange-correlation= PBE
                           (   1   4   3   4   0   0   0)
     Any further DFT definition will be discarded
     Please, verify this is what you really want


     G-vector sticks info
     --------------------
     sticks:   dense  smooth     PW     G-vecs:    dense   smooth      PW
     Sum        1507    1507    433                38517    38517    5961

     Using Slab Decomposition

     Reading collected, re-writing distributed wavefunctions
     high-symmetry point:  0.0000 0.0000 0.0000   x coordinate   0.0000
     high-symmetry point:  0.0000 0.0000 1.0000   x coordinate   1.0000
     high-symmetry point: -0.5000 0.0000 1.0000   x coordinate   1.5000
     high-symmetry point: -0.5000-0.5000 0.5000   x coordinate   2.2071
     high-symmetry point:  0.0000 0.0000 0.0000   x coordinate   3.0731

     Plottable bands (eV) written to file NaS.bands.dat.gnu
     Bands written to file NaS.bands.dat

 **************************************************************************

                    xk=(   0.00000,   0.00000,   0.00000  )

     point group O_h (m-3m) 
     there are 10 classes
     the character table:

       E     8C3   3C2   6C4   6C2'  i     8S6   3s_h  6S4   6s_d 
A_1g   1.00  1.00  1.00  1.00  1.00  1.00  1.00  1.00  1.00  1.00
A_2g   1.00  1.00  1.00 -1.00 -1.00  1.00  1.00  1.00 -1.00 -1.00
E_g    2.00 -1.00  2.00  0.00  0.00  2.00 -1.00  2.00  0.00  0.00
T_1g   3.00  0.00 -1.00  1.00 -1.00  3.00  0.00 -1.00  1.00 -1.00
T_2g   3.00  0.00 -1.00 -1.00  1.00  3.00  0.00 -1.00 -1.00  1.00
A_1u   1.00  1.00  1.00  1.00  1.00 -1.00 -1.00 -1.00 -1.00 -1.00
A_2u   1.00  1.00  1.00 -1.00 -1.00 -1.00 -1.00 -1.00  1.00  1.00
E_u    2.00 -1.00  2.00  0.00  0.00 -2.00  1.00 -2.00  0.00  0.00
T_1u   3.00  0.00 -1.00  1.00 -1.00 -3.00  0.00  1.00 -1.00  1.00
T_2u   3.00  0.00 -1.00 -1.00  1.00 -3.00  0.00  1.00  1.00 -1.00

     the symmetry operations in each class and the name of the first element:

     E        1
                                                                 
     8C3     17   19   20   18   24   21   22   23
                                                                 
     3C2      2    4    3
                                                                 
     6C4      7    8   15   16   12   11
                                                                 
     6C2'     5    6   14   13   10    9
                                                                 
     i       25
                                                                 
     8S6     41   43   44   42   48   45   46   47
                                                                 
     3s_h    26   28   27
                                                                 
     6S4     31   32   39   40   36   35
                                                                 
     6s_d    29   30   38   37   34   33
                                                                 

     Band symmetry, O_h (m-3m)  point group:

     e(  1 -  1) =    -48.39243  eV     1   --> A_1g G_1   G_1+
     e(  2 -  4) =    -20.32108  eV     3   --> T_1u G_15  G_4-
     e(  5 -  5) =     -9.35647  eV     1   --> A_1g G_1   G_1+
     e(  6 -  8) =      1.83916  eV     3   --> T_1u G_15  G_4-
     e(  9 -  9) =      5.95513  eV     1   --> A_1g G_1   G_1+
     e( 10 - 12) =     10.83340  eV     3   --> T_2g G_25' G_5+
     e( 13 - 14) =     12.83267  eV     2   --> E_g  G_12  G_3+
     e( 15 - 15) =     14.38137  eV     1   --> A_2u G_2'  G_2-

 **************************************************************************

 **************************************************************************

                    xk=(   0.00000,   0.00000,   0.02500  )

     point group C_4v (4mm) 
     there are  5 classes
     the character table:

       E     2C4   C2    2s_v  2s_d 
A_1    1.00  1.00  1.00  1.00  1.00
A_2    1.00  1.00  1.00 -1.00 -1.00
B_1    1.00 -1.00  1.00  1.00 -1.00
B_2    1.00 -1.00  1.00 -1.00  1.00
E      2.00  0.00 -2.00  0.00  0.00

     the symmetry operations in each class and the name of the first element:

     E        1
                                                                 
     2C4      3    4
                                                                 
     C2       2
                                                                 
     2s_v     5    6
                                                                 
     2s_d     7    8
                                                                 

     Band symmetry, C_4v (4mm)  point group:

     e(  1 -  1) =    -48.39243  eV     1   --> A_1  G_1 D_1   
     e(  2 -  4) =    -20.32111  eV     3   --> A_1  G_1 D_1   
     e(  2 -  4) =    -20.32111  eV     3   --> E    G_5 D_5   
     e(  5 -  5) =     -9.35560  eV     1   --> A_1  G_1 D_1   
     e(  6 -  6) =      1.83305  eV     1   --> A_1  G_1 D_1   
     e(  7 -  8) =      1.83778  eV     2   --> E    G_5 D_5   
     e(  9 -  9) =      5.96358  eV     1   --> A_1  G_1 D_1   
     e( 10 - 10) =     10.82284  eV     1   --> B_2  G_4 D_2'  
     e( 11 - 12) =     10.83744  eV     2   --> E    G_5 D_5   
     e( 13 - 13) =     12.82010  eV     1   --> A_1  G_1 D_1   
     e( 14 - 14) =     12.83469  eV     1   --> B_1  G_3 D_2   
     e( 15 - 15) =     14.39711  eV     1   --> B_2  G_4 D_2'  

 **************************************************************************

 **************************************************************************

                    xk=(   0.00000,   0.00000,   0.05000  )

     Band symmetry, C_4v (4mm)  point group:

     e(  1 -  1) =    -48.39242  eV     1   --> A_1  G_1 D_1   
     e(  2 -  4) =    -20.32119  eV     3   --> A_1  G_1 D_1   
     e(  2 -  4) =    -20.32119  eV     3   --> E    G_5 D_5   
     e(  5 -  5) =     -9.35302  eV     1   --> A_1  G_1 D_1   
     e(  6 -  6) =      1.81490  eV     1   --> A_1  G_1 D_1   
     e(  7 -  8) =      1.83365  eV     2   --> E    G_5 D_5   
     e(  9 -  9) =      5.98871  eV     1   --> A_1  G_1 D_1   
     e( 10 - 10) =     10.79174  eV     1   --> B_2  G_4 D_2'  
     e( 11 - 12) =     10.84955  eV     2   --> E    G_5 D_5   
     e( 13 - 13) =     12.78294  eV     1   --> A_1  G_1 D_1   
     e( 14 - 14) =     12.84073  eV     1   --> B_1  G_3 D_2   
     e( 15 - 15) =     14.44374  eV     1   --> B_2  G_4 D_2'  

 **************************************************************************

 **************************************************************************

                    xk=(   0.00000,   0.00000,   0.07500  )

     Band symmetry, C_4v (4mm)  point group:

     e(  1 -  1) =    -48.39242  eV     1   --> A_1  G_1 D_1   
     e(  2 -  2) =    -20.32132  eV     1   --> A_1  G_1 D_1   
     e(  3 -  4) =    -20.32116  eV     2   --> E    G_5 D_5   
     e(  5 -  5) =     -9.34873  eV     1   --> A_1  G_1 D_1   
     e(  6 -  6) =      1.78524  eV     1   --> A_1  G_1 D_1   
     e(  7 -  8) =      1.82681  eV     2   --> E    G_5 D_5   
     e(  9 -  9) =      6.02994  eV     1   --> A_1  G_1 D_1   
     e( 10 - 10) =     10.74169  eV     1   --> B_2  G_4 D_2'  
     e( 11 - 12) =     10.86968  eV     2   --> E    G_5 D_5   
     e( 13 - 13) =     12.72274  eV     1   --> A_1  G_1 D_1   
     e( 14 - 14) =     12.85080  eV     1   --> B_1  G_3 D_2   
     e( 15 - 15) =     14.51967  eV     1   --> B_2  G_4 D_2'  

 **************************************************************************

 **************************************************************************

                    xk=(   0.00000,   0.00000,   0.10000  )

     Band symmetry, C_4v (4mm)  point group:

     e(  1 -  1) =    -48.39241  eV     1   --> A_1  G_1 D_1   
     e(  2 -  2) =    -20.32151  eV     1   --> A_1  G_1 D_1   
     e(  3 -  4) =    -20.32122  eV     2   --> E    G_5 D_5   
     e(  5 -  5) =     -9.34276  eV     1   --> A_1  G_1 D_1   
     e(  6 -  6) =      1.74490  eV     1   --> A_1  G_1 D_1   
     e(  7 -  8) =      1.81734  eV     2   --> E    G_5 D_5   
     e(  9 -  9) =      6.08639  eV     1   --> A_1  G_1 D_1   
     e( 10 - 10) =     10.67501  eV     1   --> B_2  G_4 D_2'  
     e( 11 - 12) =     10.89772  eV     2   --> E    G_5 D_5   
     e( 13 - 13) =     12.64180  eV     1   --> A_1  G_1 D_1   
     e( 14 - 14) =     12.86486  eV     1   --> B_1  G_3 D_2   
     e( 15 - 15) =     14.62256  eV     1   --> B_2  G_4 D_2'  

 **************************************************************************

 **************************************************************************

                    xk=(   0.00000,   0.00000,   0.12500  )

     Band symmetry, C_4v (4mm)  point group:

     e(  1 -  1) =    -48.39240  eV     1   --> A_1  G_1 D_1   
     e(  2 -  2) =    -20.32174  eV     1   --> A_1  G_1 D_1   
     e(  3 -  4) =    -20.32129  eV     2   --> E    G_5 D_5   
     e(  5 -  5) =     -9.33515  eV     1   --> A_1  G_1 D_1   
     e(  6 -  6) =      1.69494  eV     1   --> A_1  G_1 D_1   
     e(  7 -  8) =      1.80532  eV     2   --> E    G_5 D_5   
     e(  9 -  9) =      6.15688  eV     1   --> A_1  G_1 D_1   
     e( 10 - 10) =     10.59441  eV     1   --> B_2  G_4 D_2'  
     e( 11 - 12) =     10.93356  eV     2   --> E    G_5 D_5   
     e( 13 - 13) =     12.54289  eV     1   --> A_1  G_1 D_1   
     e( 14 - 14) =     12.88290  eV     1   --> B_1  G_3 D_2   
     e( 15 - 15) =     14.74969  eV     1   --> B_2  G_4 D_2'  

 **************************************************************************

 **************************************************************************

                    xk=(   0.00000,   0.00000,   0.15000  )

     Band symmetry, C_4v (4mm)  point group:

     e(  1 -  1) =    -48.39239  eV     1   --> A_1  G_1 D_1   
     e(  2 -  2) =    -20.32203  eV     1   --> A_1  G_1 D_1   
     e(  3 -  4) =    -20.32139  eV     2   --> E    G_5 D_5   
     e(  5 -  5) =     -9.32595  eV     1   --> A_1  G_1 D_1   
     e(  6 -  6) =      1.63655  eV     1   --> A_1  G_1 D_1   
     e(  7 -  8) =      1.79086  eV     2   --> E    G_5 D_5   
     e(  9 -  9) =      6.24008  eV     1   --> A_1  G_1 D_1   
     e( 10 - 10) =     10.50261  eV     1   --> B_2  G_4 D_2'  
     e( 11 - 12) =     10.97703  eV     2   --> E    G_5 D_5   
     e( 13 - 13) =     12.42894  eV     1   --> A_1  G_1 D_1   
     e( 14 - 14) =     12.90487  eV     1   --> B_1  G_3 D_2   
     e( 15 - 15) =     14.89833  eV     1   --> B_2  G_4 D_2'  

 **************************************************************************

 **************************************************************************

                    xk=(   0.00000,   0.00000,   0.17500  )

     Band symmetry, C_4v (4mm)  point group:

     e(  1 -  1) =    -48.39238  eV     1   --> A_1  G_1 D_1   
     e(  2 -  2) =    -20.32236  eV     1   --> A_1  G_1 D_1   
     e(  3 -  4) =    -20.32150  eV     2   --> E    G_5 D_5   
     e(  5 -  5) =     -9.31520  eV     1   --> A_1  G_1 D_1   
     e(  6 -  6) =      1.57098  eV     1   --> A_1  G_1 D_1   
     e(  7 -  8) =      1.77412  eV     2   --> E    G_5 D_5   
     e(  9 -  9) =      6.33456  eV     1   --> A_1  G_1 D_1   
     e( 10 - 10) =     10.40217  eV     1   --> B_2  G_4 D_2'  
     e( 11 - 12) =     11.02796  eV     2   --> E    G_5 D_5   
     e( 13 - 13) =     12.30286  eV     1   --> A_1  G_1 D_1   
     e( 14 - 14) =     12.93074  eV     1   --> B_1  G_3 D_2   
     e( 15 - 15) =     15.06587  eV     1   --> B_2  G_4 D_2'  

 **************************************************************************

 **************************************************************************

                    xk=(   0.00000,   0.00000,   0.20000  )

     Band symmetry, C_4v (4mm)  point group:

     e(  1 -  1) =    -48.39237  eV     1   --> A_1  G_1 D_1   
     e(  2 -  2) =    -20.32273  eV     1   --> A_1  G_1 D_1   
     e(  3 -  4) =    -20.32162  eV     2   --> E    G_5 D_5   
     e(  5 -  5) =     -9.30298  eV     1   --> A_1  G_1 D_1   
     e(  6 -  6) =      1.49949  eV     1   --> A_1  G_1 D_1   
     e(  7 -  8) =      1.75523  eV     2   --> E    G_5 D_5   
     e(  9 -  9) =      6.43882  eV     1   --> A_1  G_1 D_1   
     e( 10 - 10) =     10.29537  eV     1   --> B_2  G_4 D_2'  
     e( 11 - 12) =     11.08613  eV     2   --> E    G_5 D_5   
     e( 13 - 13) =     12.16744  eV     1   --> A_1  G_1 D_1   
     e( 14 - 14) =     12.96044  eV     1   --> B_1  G_3 D_2   
     e( 15 - 15) =     15.25001  eV     1   --> B_2  G_4 D_2'  

 **************************************************************************

 **************************************************************************

                    xk=(   0.00000,   0.00000,   0.22500  )

     Band symmetry, C_4v (4mm)  point group:

     e(  1 -  1) =    -48.39235  eV     1   --> A_1  G_1 D_1   
     e(  2 -  2) =    -20.32314  eV     1   --> A_1  G_1 D_1   
     e(  3 -  4) =    -20.32176  eV     2   --> E    G_5 D_5   
     e(  5 -  5) =     -9.28937  eV     1   --> A_1  G_1 D_1   
     e(  6 -  6) =      1.42326  eV     1   --> A_1  G_1 D_1   
     e(  7 -  8) =      1.73438  eV     2   --> E    G_5 D_5   
     e(  9 -  9) =      6.55135  eV     1   --> A_1  G_1 D_1   
     e( 10 - 10) =     10.18416  eV     1   --> B_2  G_4 D_2'  
     e( 11 - 12) =     11.15131  eV     2   --> E    G_5 D_5   
     e( 13 - 13) =     12.02524  eV     1   --> A_1  G_1 D_1   
     e( 14 - 14) =     12.99393  eV     1   --> B_1  G_3 D_2   
     e( 15 - 15) =     15.44878  eV     1   --> B_2  G_4 D_2'  

 **************************************************************************

 **************************************************************************

                    xk=(   0.00000,   0.00000,   0.25000  )

     Band symmetry, C_4v (4mm)  point group:

     e(  1 -  1) =    -48.39234  eV     1   --> A_1  G_1 D_1   
     e(  2 -  2) =    -20.32359  eV     1   --> A_1  G_1 D_1   
     e(  3 -  4) =    -20.32191  eV     2   --> E    G_5 D_5   
     e(  5 -  5) =     -9.27444  eV     1   --> A_1  G_1 D_1   
     e(  6 -  6) =      1.34344  eV     1   --> A_1  G_1 D_1   
     e(  7 -  8) =      1.71175  eV     2   --> E    G_5 D_5   
     e(  9 -  9) =      6.67064  eV     1   --> A_1  G_1 D_1   
     e( 10 - 10) =     10.07015  eV     1   --> B_2  G_4 D_2'  
     e( 11 - 12) =     11.22325  eV     2   --> E    G_5 D_5   
     e( 13 - 13) =     11.87866  eV     1   --> A_1  G_1 D_1   
     e( 14 - 14) =     13.03112  eV     1   --> B_1  G_3 D_2   
     e( 15 - 15) =     15.66048  eV     1   --> B_2  G_4 D_2'  

 **************************************************************************

 **************************************************************************

                    xk=(   0.00000,   0.00000,   0.27500  )

     Band symmetry, C_4v (4mm)  point group:

     e(  1 -  1) =    -48.39232  eV     1   --> A_1  G_1 D_1   
     e(  2 -  2) =    -20.32406  eV     1   --> A_1  G_1 D_1   
     e(  3 -  4) =    -20.32207  eV     2   --> E    G_5 D_5   
     e(  5 -  5) =     -9.25829  eV     1   --> A_1  G_1 D_1   
     e(  6 -  6) =      1.26104  eV     1   --> A_1  G_1 D_1   
     e(  7 -  8) =      1.68752  eV     2   --> E    G_5 D_5   
     e(  9 -  9) =      6.79516  eV     1   --> A_1  G_1 D_1   
     e( 10 - 10) =      9.95471  eV     1   --> B_2  G_4 D_2'  
     e( 11 - 12) =     11.30167  eV     2   --> E    G_5 D_5   
     e( 13 - 13) =     11.72995  eV     1   --> A_1  G_1 D_1   
     e( 14 - 14) =     13.07193  eV     1   --> B_1  G_3 D_2   
     e( 15 - 15) =     15.88373  eV     1   --> B_2  G_4 D_2'  

 **************************************************************************

 **************************************************************************

                    xk=(   0.00000,   0.00000,   0.30000  )

     Band symmetry, C_4v (4mm)  point group:

     e(  1 -  1) =    -48.39230  eV     1   --> A_1  G_1 D_1   
     e(  2 -  2) =    -20.32456  eV     1   --> A_1  G_1 D_1   
     e(  3 -  4) =    -20.32225  eV     2   --> E    G_5 D_5   
     e(  5 -  5) =     -9.24102  eV     1   --> A_1  G_1 D_1   
     e(  6 -  6) =      1.17700  eV     1   --> A_1  G_1 D_1   
     e(  7 -  8) =      1.66191  eV     2   --> E    G_5 D_5   
     e(  9 -  9) =      6.92336  eV     1   --> A_1  G_1 D_1   
     e( 10 - 10) =      9.83892  eV     1   --> B_2  G_4 D_2'  
     e( 11 - 12) =     11.38632  eV     2   --> E    G_5 D_5   
     e( 13 - 13) =     11.58124  eV     1   --> A_1  G_1 D_1   
     e( 14 - 14) =     13.11627  eV     1   --> B_1  G_3 D_2   
     e( 15 - 15) =     16.11736  eV     1   --> B_2  G_4 D_2'  

 **************************************************************************

 **************************************************************************

                    xk=(   0.00000,   0.00000,   0.32500  )

     Band symmetry, C_4v (4mm)  point group:

     e(  1 -  1) =    -48.39228  eV     1   --> A_1  G_1 D_1   
     e(  2 -  2) =    -20.32509  eV     1   --> A_1  G_1 D_1   
     e(  3 -  4) =    -20.32244  eV     2   --> E    G_5 D_5   
     e(  5 -  5) =     -9.22273  eV     1   --> A_1  G_1 D_1   
     e(  6 -  6) =      1.09214  eV     1   --> A_1  G_1 D_1   
     e(  7 -  8) =      1.63511  eV     2   --> E    G_5 D_5   
     e(  9 -  9) =      7.05364  eV     1   --> A_1  G_1 D_1   
     e( 10 - 10) =      9.72371  eV     1   --> B_2  G_4 D_2'  
     e( 11 - 11) =     11.43462  eV     1   --> A_1  G_1 D_1   
     e( 12 - 13) =     11.47690  eV     2   --> E    G_5 D_5   
     e( 14 - 14) =     13.16402  eV     1   --> B_1  G_3 D_2   
     e( 15 - 15) =     16.36038  eV     1   --> B_2  G_4 D_2'  

 **************************************************************************

 **************************************************************************

                    xk=(   0.00000,   0.00000,   0.35000  )

     Band symmetry, C_4v (4mm)  point group:

     e(  1 -  1) =    -48.39226  eV     1   --> A_1  G_1 D_1   
     e(  2 -  2) =    -20.32563  eV     1   --> A_1  G_1 D_1   
     e(  3 -  4) =    -20.32263  eV     2   --> E    G_5 D_5   
     e(  5 -  5) =     -9.20354  eV     1   --> A_1  G_1 D_1   
     e(  6 -  6) =      1.00719  eV     1   --> A_1  G_1 D_1   
     e(  7 -  8) =      1.60734  eV     2   --> E    G_5 D_5   
     e(  9 -  9) =      7.18429  eV     1   --> A_1  G_1 D_1   
     e( 10 - 10) =      9.60980  eV     1   --> B_2  G_4 D_2'  
     e( 11 - 11) =     11.29221  eV     1   --> A_1  G_1 D_1   
     e( 12 - 13) =     11.57312  eV     2   --> E    G_5 D_5   
     e( 14 - 14) =     13.21507  eV     1   --> B_1  G_3 D_2   
     e( 15 - 15) =     16.61196  eV     1   --> B_2  G_4 D_2'  

 **************************************************************************

 **************************************************************************

                    xk=(   0.00000,   0.00000,   0.37500  )

     Band symmetry, C_4v (4mm)  point group:

     e(  1 -  1) =    -48.39223  eV     1   --> A_1  G_1 D_1   
     e(  2 -  2) =    -20.32619  eV     1   --> A_1  G_1 D_1   
     e(  3 -  4) =    -20.32284  eV     2   --> E    G_5 D_5   
     e(  5 -  5) =     -9.18358  eV     1   --> A_1  G_1 D_1   
     e(  6 -  6) =      0.92280  eV     1   --> A_1  G_1 D_1   
     e(  7 -  8) =      1.57880  eV     2   --> E    G_5 D_5   
     e(  9 -  9) =      7.31342  eV     1   --> A_1  G_1 D_1   
     e( 10 - 10) =      9.49781  eV     1   --> B_2  G_4 D_2'  
     e( 11 - 11) =     11.15622  eV     1   --> A_1  G_1 D_1   
     e( 12 - 13) =     11.67471  eV     2   --> E    G_5 D_5   
     e( 14 - 14) =     13.26926  eV     1   --> B_1  G_3 D_2   
     e( 15 - 15) =     16.87141  eV     1   --> B_2  G_4 D_2'  

 **************************************************************************

 **************************************************************************

                    xk=(   0.00000,   0.00000,   0.40000  )

     Band symmetry, C_4v (4mm)  point group:

     e(  1 -  1) =    -48.39221  eV     1   --> A_1  G_1 D_1   
     e(  2 -  2) =    -20.32675  eV     1   --> A_1  G_1 D_1   
     e(  3 -  4) =    -20.32305  eV     2   --> E    G_5 D_5   
     e(  5 -  5) =     -9.16295  eV     1   --> A_1  G_1 D_1   
     e(  6 -  6) =      0.83953  eV     1   --> A_1  G_1 D_1   
     e(  7 -  8) =      1.54969  eV     2   --> E    G_5 D_5   
     e(  9 -  9) =      7.43897  eV     1   --> A_1  G_1 D_1   
     e( 10 - 10) =      9.38823  eV     1   --> B_2  G_4 D_2'  
     e( 11 - 11) =     11.02902  eV     1   --> A_1  G_1 D_1   
     e( 12 - 13) =     11.78138  eV     2   --> E    G_5 D_5   
     e( 14 - 14) =     13.32644  eV     1   --> B_1  G_3 D_2   
     e( 15 - 15) =     17.13810  eV     1   --> B_2  G_4 D_2'  

 **************************************************************************

 **************************************************************************

                    xk=(   0.00000,   0.00000,   0.42500  )

     Band symmetry, C_4v (4mm)  point group:

     e(  1 -  1) =    -48.39219  eV     1   --> A_1  G_1 D_1   
     e(  2 -  2) =    -20.32732  eV     1   --> A_1  G_1 D_1   
     e(  3 -  4) =    -20.32326  eV     2   --> E    G_5 D_5   
     e(  5 -  5) =     -9.14180  eV     1   --> A_1  G_1 D_1   
     e(  6 -  6) =      0.75786  eV     1   --> A_1  G_1 D_1   
     e(  7 -  8) =      1.52021  eV     2   --> E    G_5 D_5   
     e(  9 -  9) =      7.55858  eV     1   --> A_1  G_1 D_1   
     e( 10 - 10) =      9.28148  eV     1   --> B_2  G_4 D_2'  
     e( 11 - 11) =     10.91319  eV     1   --> A_1  G_1 D_1   
     e( 12 - 13) =     11.89286  eV     2   --> E    G_5 D_5   
     e( 14 - 14) =     13.38644  eV     1   --> B_1  G_3 D_2   
     e( 15 - 15) =     17.41147  eV     1   --> B_2  G_4 D_2'  

 **************************************************************************

 **************************************************************************

                    xk=(   0.00000,   0.00000,   0.45000  )

     Band symmetry, C_4v (4mm)  point group:

     e(  1 -  1) =    -48.39216  eV     1   --> A_1  G_1 D_1   
     e(  2 -  2) =    -20.32789  eV     1   --> A_1  G_1 D_1   
     e(  3 -  4) =    -20.32348  eV     2   --> E    G_5 D_5   
     e(  5 -  5) =     -9.12026  eV     1   --> A_1  G_1 D_1   
     e(  6 -  6) =      0.67821  eV     1   --> A_1  G_1 D_1   
     e(  7 -  8) =      1.49057  eV     2   --> E    G_5 D_5   
     e(  9 -  9) =      7.66965  eV     1   --> A_1  G_1 D_1   
     e( 10 - 10) =      9.17791  eV     1   --> B_2  G_4 D_2'  
     e( 11 - 11) =     10.81158  eV     1   --> A_1  G_1 D_1   
     e( 12 - 13) =     12.00887  eV     2   --> E    G_5 D_5   
     e( 14 - 14) =     13.44906  eV     1   --> B_1  G_3 D_2   
     e( 15 - 15) =     17.69102  eV     1   --> B_2  G_4 D_2'  

 **************************************************************************

 **************************************************************************

                    xk=(   0.00000,   0.00000,   0.47500  )

     Band symmetry, C_4v (4mm)  point group:

     e(  1 -  1) =    -48.39214  eV     1   --> A_1  G_1 D_1   
     e(  2 -  2) =    -20.32845  eV     1   --> A_1  G_1 D_1   
     e(  3 -  4) =    -20.32371  eV     2   --> E    G_5 D_5   
     e(  5 -  5) =     -9.09846  eV     1   --> A_1  G_1 D_1   
     e(  6 -  6) =      0.60096  eV     1   --> A_1  G_1 D_1   
     e(  7 -  8) =      1.46095  eV     2   --> E    G_5 D_5   
     e(  9 -  9) =      7.76931  eV     1   --> A_1  G_1 D_1   
     e( 10 - 10) =      9.07779  eV     1   --> B_2  G_4 D_2'  
     e( 11 - 11) =     10.72719  eV     1   --> A_1  G_1 D_1   
     e( 12 - 13) =     12.12915  eV     2   --> E    G_5 D_5   
     e( 14 - 14) =     13.51406  eV     1   --> B_1  G_3 D_2   
     e( 15 - 15) =     17.81950  eV     1   -->   ?

 **************************************************************************

 **************************************************************************

                    xk=(   0.00000,   0.00000,   0.50000  )

     Band symmetry, C_4v (4mm)  point group:

     e(  1 -  1) =    -48.39212  eV     1   --> A_1  G_1 D_1   
     e(  2 -  2) =    -20.32901  eV     1   --> A_1  G_1 D_1   
     e(  3 -  4) =    -20.32393  eV     2   --> E    G_5 D_5   
     e(  5 -  5) =     -9.07653  eV     1   --> A_1  G_1 D_1   
     e(  6 -  6) =      0.52641  eV     1   --> A_1  G_1 D_1   
     e(  7 -  8) =      1.43153  eV     2   --> E    G_5 D_5   
     e(  9 -  9) =      7.85464  eV     1   --> A_1  G_1 D_1   
     e( 10 - 10) =      8.98137  eV     1   --> B_2  G_4 D_2'  
     e( 11 - 11) =     10.66307  eV     1   --> A_1  G_1 D_1   
     e( 12 - 13) =     12.25346  eV     2   --> E    G_5 D_5   
     e( 14 - 14) =     13.58120  eV     1   --> B_1  G_3 D_2   
     e( 15 - 15) =     17.94134  eV     1   -->   ?

 **************************************************************************

 **************************************************************************

                    xk=(   0.00000,   0.00000,   0.52500  )

     Band symmetry, C_4v (4mm)  point group:

     e(  1 -  1) =    -48.39209  eV     1   --> A_1  G_1 D_1   
     e(  2 -  2) =    -20.32956  eV     1   --> A_1  G_1 D_1   
     e(  3 -  4) =    -20.32415  eV     2   --> E    G_5 D_5   
     e(  5 -  5) =     -9.05462  eV     1   --> A_1  G_1 D_1   
     e(  6 -  6) =      0.45483  eV     1   --> A_1  G_1 D_1   
     e(  7 -  8) =      1.40249  eV     2   --> E    G_5 D_5   
     e(  9 -  9) =      7.92295  eV     1   --> A_1  G_1 D_1   
     e( 10 - 10) =      8.88885  eV     1   --> B_2  G_4 D_2'  
     e( 11 - 11) =     10.62203  eV     1   --> A_1  G_1 D_1   
     e( 12 - 13) =     12.38155  eV     2   --> E    G_5 D_5   
     e( 14 - 14) =     13.65020  eV     1   --> B_1  G_3 D_2   
     e( 15 - 15) =     18.05588  eV     1   -->   ?

 **************************************************************************

 **************************************************************************

                    xk=(   0.00000,   0.00000,   0.55000  )

     Band symmetry, C_4v (4mm)  point group:

     e(  1 -  1) =    -48.39207  eV     1   --> A_1  G_1 D_1   
     e(  2 -  2) =    -20.33010  eV     1   --> A_1  G_1 D_1   
     e(  3 -  4) =    -20.32438  eV     2   --> E    G_5 D_5   
     e(  5 -  5) =     -9.03286  eV     1   --> A_1  G_1 D_1   
     e(  6 -  6) =      0.38643  eV     1   --> A_1  G_1 D_1   
     e(  7 -  8) =      1.37399  eV     2   --> E    G_5 D_5   
     e(  9 -  9) =      7.97217  eV     1   --> A_1  G_1 D_1   
     e( 10 - 10) =      8.80041  eV     1   --> B_2  G_4 D_2'  
     e( 11 - 11) =     10.60614  eV     1   --> A_1  G_1 D_1   
     e( 12 - 13) =     12.51320  eV     2   --> E    G_5 D_5   
     e( 14 - 14) =     13.72075  eV     1   --> B_1  G_3 D_2   
     e( 15 - 15) =     18.15551  eV     1   -->   ?

 **************************************************************************

 **************************************************************************

                    xk=(   0.00000,   0.00000,   0.57500  )

     Band symmetry, C_4v (4mm)  point group:

     e(  1 -  1) =    -48.39204  eV     1   --> A_1  G_1 D_1   
     e(  2 -  2) =    -20.33061  eV     1   --> A_1  G_1 D_1   
     e(  3 -  4) =    -20.32460  eV     2   --> E    G_5 D_5   
     e(  5 -  5) =     -9.01139  eV     1   --> A_1  G_1 D_1   
     e(  6 -  6) =      0.32139  eV     1   --> A_1  G_1 D_1   
     e(  7 -  8) =      1.34618  eV     2   --> E    G_5 D_5   
     e(  9 -  9) =      8.00138  eV     1   --> A_1  G_1 D_1   
     e( 10 - 10) =      8.71618  eV     1   --> B_2  G_4 D_2'  
     e( 11 - 11) =     10.61632  eV     1   --> A_1  G_1 D_1   
     e( 12 - 13) =     12.64817  eV     2   --> E    G_5 D_5   
     e( 14 - 14) =     13.79249  eV     1   --> B_1  G_3 D_2   
     e( 15 - 15) =     18.22948  eV     1   -->   ?

 **************************************************************************

 **************************************************************************

                    xk=(   0.00000,   0.00000,   0.60000  )

     Band symmetry, C_4v (4mm)  point group:

     e(  1 -  1) =    -48.39202  eV     1   --> A_1  G_1 D_1   
     e(  2 -  2) =    -20.33111  eV     1   --> A_1  G_1 D_1   
     e(  3 -  4) =    -20.32482  eV     2   --> E    G_5 D_5   
     e(  5 -  5) =     -8.99034  eV     1   --> A_1  G_1 D_1   
     e(  6 -  6) =      0.25987  eV     1   --> A_1  G_1 D_1   
     e(  7 -  8) =      1.31922  eV     2   --> E    G_5 D_5   
     e(  9 -  9) =      8.01101  eV     1   --> A_1  G_1 D_1   
     e( 10 - 10) =      8.63630  eV     1   --> B_2  G_4 D_2'  
     e( 11 - 11) =     10.65204  eV     1   --> A_1  G_1 D_1   
     e( 12 - 13) =     12.78625  eV     2   --> E    G_5 D_5   
     e( 14 - 14) =     13.86503  eV     1   --> B_1  G_3 D_2   
     e( 15 - 15) =     18.26488  eV     1   -->   ?

 **************************************************************************

 **************************************************************************

                    xk=(   0.00000,   0.00000,   0.62500  )

     Band symmetry, C_4v (4mm)  point group:

     e(  1 -  1) =    -48.39200  eV     1   --> A_1  G_1 D_1   
     e(  2 -  2) =    -20.33158  eV     1   --> A_1  G_1 D_1   
     e(  3 -  4) =    -20.32503  eV     2   --> E    G_5 D_5   
     e(  5 -  5) =     -8.96984  eV     1   --> A_1  G_1 D_1   
     e(  6 -  6) =      0.20198  eV     1   --> A_1  G_1 D_1   
     e(  7 -  8) =      1.29323  eV     2   --> E    G_5 D_5   
     e(  9 -  9) =      8.00287  eV     1   --> A_1  G_1 D_1   
     e( 10 - 10) =      8.56088  eV     1   --> B_2  G_4 D_2'  
     e( 11 - 11) =     10.71134  eV     1   --> A_1  G_1 D_1   
     e( 12 - 13) =     12.92721  eV     2   --> E    G_5 D_5   
     e( 14 - 14) =     13.93796  eV     1   --> B_1  G_3 D_2   
     e( 15 - 15) =     18.25112  eV     1   -->   ?

 **************************************************************************

 **************************************************************************

                    xk=(   0.00000,   0.00000,   0.65000  )

     Band symmetry, C_4v (4mm)  point group:

     e(  1 -  1) =    -48.39198  eV     1   --> A_1  G_1 D_1   
     e(  2 -  2) =    -20.33203  eV     1   --> A_1  G_1 D_1   
     e(  3 -  4) =    -20.32523  eV     2   --> E    G_5 D_5   
     e(  5 -  5) =     -8.95002  eV     1   --> A_1  G_1 D_1   
     e(  6 -  6) =      0.14781  eV     1   --> A_1  G_1 D_1   
     e(  7 -  8) =      1.26835  eV     2   --> E    G_5 D_5   
     e(  9 -  9) =      7.97971  eV     1   --> A_1  G_1 D_1   
     e( 10 - 10) =      8.48999  eV     1   --> B_2  G_4 D_2'  
     e( 11 - 11) =     10.79119  eV     1   --> A_1  G_1 D_1   
     e( 12 - 13) =     13.07085  eV     2   --> E    G_5 D_5   
     e( 14 - 14) =     14.01080  eV     1   --> B_1  G_3 D_2   
     e( 15 - 15) =     18.18617  eV     1   -->   ?

 **************************************************************************

 **************************************************************************

                    xk=(   0.00000,   0.00000,   0.67500  )

     Band symmetry, C_4v (4mm)  point group:

     e(  1 -  1) =    -48.39196  eV     1   --> A_1  G_1 D_1   
     e(  2 -  2) =    -20.33246  eV     1   --> A_1  G_1 D_1   
     e(  3 -  4) =    -20.32543  eV     2   --> E    G_5 D_5   
     e(  5 -  5) =     -8.93100  eV     1   --> A_1  G_1 D_1   
     e(  6 -  6) =      0.09742  eV     1   --> A_1  G_1 D_1   
     e(  7 -  8) =      1.24470  eV     2   --> E    G_5 D_5   
     e(  9 -  9) =      7.94483  eV     1   --> A_1  G_1 D_1   
     e( 10 - 10) =      8.42372  eV     1   --> B_2  G_4 D_2'  
     e( 11 - 11) =     10.88793  eV     1   --> A_1  G_1 D_1   
     e( 12 - 13) =     13.21691  eV     2   --> E    G_5 D_5   
     e( 14 - 14) =     14.08301  eV     1   --> B_1  G_3 D_2   
     e( 15 - 15) =     18.07768  eV     1   -->   ?

 **************************************************************************

 **************************************************************************

                    xk=(   0.00000,   0.00000,   0.70000  )

     Band symmetry, C_4v (4mm)  point group:

     e(  1 -  1) =    -48.39194  eV     1   --> A_1  G_1 D_1   
     e(  2 -  2) =    -20.33285  eV     1   --> A_1  G_1 D_1   
     e(  3 -  4) =    -20.32562  eV     2   --> E    G_5 D_5   
     e(  5 -  5) =     -8.91289  eV     1   --> A_1  G_1 D_1   
     e(  6 -  6) =      0.05084  eV     1   --> A_1  G_1 D_1   
     e(  7 -  8) =      1.22238  eV     2   --> E    G_5 D_5   
     e(  9 -  9) =      7.90155  eV     1   --> A_1  G_1 D_1   
     e( 10 - 10) =      8.36215  eV     1   --> B_2  G_4 D_2'  
     e( 11 - 11) =     10.99771  eV     1   --> A_1  G_1 D_1   
     e( 12 - 13) =     13.36514  eV     2   --> E    G_5 D_5   
     e( 14 - 14) =     14.15405  eV     1   --> B_1  G_3 D_2   
     e( 15 - 15) =     17.93764  eV     1   -->   ?

 **************************************************************************

 **************************************************************************

                    xk=(   0.00000,   0.00000,   0.72500  )

     Band symmetry, C_4v (4mm)  point group:

     e(  1 -  1) =    -48.39192  eV     1   --> A_1  G_1 D_1   
     e(  2 -  2) =    -20.33322  eV     1   --> A_1  G_1 D_1   
     e(  3 -  4) =    -20.32579  eV     2   --> E    G_5 D_5   
     e(  5 -  5) =     -8.89581  eV     1   --> A_1  G_1 D_1   
     e(  6 -  6) =      0.00811  eV     1   --> A_1  G_1 D_1   
     e(  7 -  8) =      1.20149  eV     2   --> E    G_5 D_5   
     e(  9 -  9) =      7.85294  eV     1   --> A_1  G_1 D_1   
     e( 10 - 10) =      8.30532  eV     1   --> B_2  G_4 D_2'  
     e( 11 - 11) =     11.11677  eV     1   --> A_1  G_1 D_1   
     e( 12 - 13) =     13.51522  eV     2   --> E    G_5 D_5   
     e( 14 - 14) =     14.22328  eV     1   --> B_1  G_3 D_2   
     e( 15 - 15) =     17.77710  eV     1   -->   ?

 **************************************************************************

 **************************************************************************

                    xk=(   0.00000,   0.00000,   0.75000  )

     Band symmetry, C_4v (4mm)  point group:

     e(  1 -  1) =    -48.39190  eV     1   --> A_1  G_1 D_1   
     e(  2 -  2) =    -20.33356  eV     1   --> A_1  G_1 D_1   
     e(  3 -  4) =    -20.32596  eV     2   --> E    G_5 D_5   
     e(  5 -  5) =     -8.87986  eV     1   --> A_1  G_1 D_1   
     e(  6 -  6) =     -0.03077  eV     1   --> A_1  G_1 D_1   
     e(  7 -  8) =      1.18213  eV     2   --> E    G_5 D_5   
     e(  9 -  9) =      7.80169  eV     1   --> A_1  G_1 D_1   
     e( 10 - 10) =      8.25329  eV     1   --> B_2  G_4 D_2'  
     e( 11 - 11) =     11.24154  eV     1   --> A_1  G_1 D_1   
     e( 12 - 13) =     13.66678  eV     2   --> E    G_5 D_5   
     e( 14 - 14) =     14.29006  eV     1   --> B_1  G_3 D_2   
     e( 15 - 15) =     17.60432  eV     1   -->   ?

 **************************************************************************

 **************************************************************************

                    xk=(   0.00000,   0.00000,   0.77500  )

     Band symmetry, C_4v (4mm)  point group:

     e(  1 -  1) =    -48.39188  eV     1   --> A_1  G_1 D_1   
     e(  2 -  2) =    -20.33387  eV     1   --> A_1  G_1 D_1   
     e(  3 -  4) =    -20.32611  eV     2   --> E    G_5 D_5   
     e(  5 -  5) =     -8.86513  eV     1   --> A_1  G_1 D_1   
     e(  6 -  6) =     -0.06583  eV     1   --> A_1  G_1 D_1   
     e(  7 -  8) =      1.16437  eV     2   --> E    G_5 D_5   
     e(  9 -  9) =      7.75006  eV     1   --> A_1  G_1 D_1   
     e( 10 - 10) =      8.20610  eV     1   --> B_2  G_4 D_2'  
     e( 11 - 11) =     11.36865  eV     1   --> A_1  G_1 D_1   
     e( 12 - 13) =     13.81933  eV     2   --> E    G_5 D_5   
     e( 14 - 14) =     14.35367  eV     1   --> B_1  G_3 D_2   
     e( 15 - 15) =     17.42511  eV     1   -->   ?

 **************************************************************************

 **************************************************************************

                    xk=(   0.00000,   0.00000,   0.80000  )

     Band symmetry, C_4v (4mm)  point group:

     e(  1 -  1) =    -48.39187  eV     1   --> A_1  G_1 D_1   
     e(  2 -  2) =    -20.33414  eV     1   --> A_1  G_1 D_1   
     e(  3 -  4) =    -20.32625  eV     2   --> E    G_5 D_5   
     e(  5 -  5) =     -8.85172  eV     1   --> A_1  G_1 D_1   
     e(  6 -  6) =     -0.09706  eV     1   --> A_1  G_1 D_1   
     e(  7 -  8) =      1.14829  eV     2   --> E    G_5 D_5   
     e(  9 -  9) =      7.69991  eV     1   --> A_1  G_1 D_1   
     e( 10 - 10) =      8.16378  eV     1   --> B_2  G_4 D_2'  
     e( 11 - 11) =     11.49488  eV     1   --> A_1  G_1 D_1   
     e( 12 - 13) =     13.97220  eV     2   --> E    G_5 D_5   
     e( 14 - 14) =     14.41340  eV     1   --> B_1  G_3 D_2   
     e( 15 - 15) =     17.24359  eV     1   -->   ?

 **************************************************************************

 **************************************************************************

                    xk=(   0.00000,   0.00000,   0.82500  )

     Band symmetry, C_4v (4mm)  point group:

     e(  1 -  1) =    -48.39185  eV     1   --> A_1  G_1 D_1   
     e(  2 -  2) =    -20.33439  eV     1   --> A_1  G_1 D_1   
     e(  3 -  4) =    -20.32638  eV     2   --> E    G_5 D_5   
     e(  5 -  5) =     -8.83969  eV     1   --> A_1  G_1 D_1   
     e(  6 -  6) =     -0.12451  eV     1   --> A_1  G_1 D_1   
     e(  7 -  8) =      1.13395  eV     2   --> E    G_5 D_5   
     e(  9 -  9) =      7.65275  eV     1   --> A_1  G_1 D_1   
     e( 10 - 10) =      8.12638  eV     1   --> B_2  G_4 D_2'  
     e( 11 - 11) =     11.61707  eV     1   --> A_1  G_1 D_1   
     e( 12 - 13) =     14.12445  eV     2   --> E    G_5 D_5   
     e( 14 - 14) =     14.46847  eV     1   --> B_1  G_3 D_2   
     e( 15 - 15) =     17.06299  eV     1   -->   ?

 **************************************************************************

 **************************************************************************

                    xk=(   0.00000,   0.00000,   0.85000  )

     Band symmetry, C_4v (4mm)  point group:

     e(  1 -  1) =    -48.39184  eV     1   --> A_1  G_1 D_1   
     e(  2 -  2) =    -20.33460  eV     1   --> A_1  G_1 D_1   
     e(  3 -  4) =    -20.32649  eV     2   --> E    G_5 D_5   
     e(  5 -  5) =     -8.82912  eV     1   --> A_1  G_1 D_1   
     e(  6 -  6) =     -0.14820  eV     1   --> A_1  G_1 D_1   
     e(  7 -  8) =      1.12141  eV     2   --> E    G_5 D_5   
     e(  9 -  9) =      7.60979  eV     1   --> A_1  G_1 D_1   
     e( 10 - 10) =      8.09392  eV     1   --> B_2  G_4 D_2'  
     e( 11 - 11) =     11.73211  eV     1   --> A_1  G_1 D_1   
     e( 12 - 13) =     14.27469  eV     2   --> E    G_5 D_5   
     e( 14 - 14) =     14.51815  eV     1   --> B_1  G_3 D_2   
     e( 15 - 15) =     16.88623  eV     1   -->   ?

 **************************************************************************

 **************************************************************************

                    xk=(   0.00000,   0.00000,   0.87500  )

     Band symmetry, C_4v (4mm)  point group:

     e(  1 -  1) =    -48.39183  eV     1   --> A_1  G_1 D_1   
     e(  2 -  2) =    -20.33478  eV     1   --> A_1  G_1 D_1   
     e(  3 -  4) =    -20.32658  eV     2   --> E    G_5 D_5   
     e(  5 -  5) =     -8.82008  eV     1   --> A_1  G_1 D_1   
     e(  6 -  6) =     -0.16817  eV     1   --> A_1  G_1 D_1   
     e(  7 -  8) =      1.11072  eV     2   --> E    G_5 D_5   
     e(  9 -  9) =      7.57199  eV     1   --> A_1  G_1 D_1   
     e( 10 - 10) =      8.06641  eV     1   --> B_2  G_4 D_2'  
     e( 11 - 11) =     11.83682  eV     1   --> A_1  G_1 D_1   
     e( 12 - 13) =     14.42078  eV     2   --> E    G_5 D_5   
     e( 14 - 14) =     14.56169  eV     1   --> B_1  G_3 D_2   
     e( 15 - 15) =     16.71646  eV     1   -->   ?

 **************************************************************************

 **************************************************************************

                    xk=(   0.00000,   0.00000,   0.90000  )

     Band symmetry, C_4v (4mm)  point group:

     e(  1 -  1) =    -48.39182  eV     1   --> A_1  G_1 D_1   
     e(  2 -  2) =    -20.33493  eV     1   --> A_1  G_1 D_1   
     e(  3 -  4) =    -20.32666  eV     2   --> E    G_5 D_5   
     e(  5 -  5) =     -8.81261  eV     1   --> A_1  G_1 D_1   
     e(  6 -  6) =     -0.18445  eV     1   --> A_1  G_1 D_1   
     e(  7 -  8) =      1.10192  eV     2   --> E    G_5 D_5   
     e(  9 -  9) =      7.54012  eV     1   --> A_1  G_1 D_1   
     e( 10 - 10) =      8.04388  eV     1   --> B_2  G_4 D_2'  
     e( 11 - 11) =     11.92809  eV     1   --> A_1  G_1 D_1   
     e( 12 - 13) =     14.55938  eV     2   --> E    G_5 D_5   
     e( 14 - 14) =     14.59841  eV     1   --> B_1  G_3 D_2   
     e( 15 - 15) =     16.55775  eV     1   -->   ?

 **************************************************************************

 **************************************************************************

                    xk=(   0.00000,   0.00000,   0.92500  )

     Band symmetry, C_4v (4mm)  point group:

     e(  1 -  1) =    -48.39182  eV     1   --> A_1  G_1 D_1   
     e(  2 -  2) =    -20.33504  eV     1   --> A_1  G_1 D_1   
     e(  3 -  4) =    -20.32672  eV     2   --> E    G_5 D_5   
     e(  5 -  5) =     -8.80675  eV     1   --> A_1  G_1 D_1   
     e(  6 -  6) =     -0.19708  eV     1   --> A_1  G_1 D_1   
     e(  7 -  8) =      1.09504  eV     2   --> E    G_5 D_5   
     e(  9 -  9) =      7.51477  eV     1   --> A_1  G_1 D_1   
     e( 10 - 10) =      8.02634  eV     1   --> B_2  G_4 D_2'  
     e( 11 - 11) =     12.00294  eV     1   --> A_1  G_1 D_1   
     e( 12 - 12) =     14.62768  eV     1   --> B_1  G_3 D_2   
     e( 13 - 14) =     14.68511  eV     2   --> E    G_5 D_5   
     e( 15 - 15) =     16.41597  eV     1   -->   ?

 **************************************************************************

 **************************************************************************

                    xk=(   0.00000,   0.00000,   0.95000  )

     Band symmetry, C_4v (4mm)  point group:

     e(  1 -  1) =    -48.39181  eV     1   --> A_1  G_1 D_1   
     e(  2 -  2) =    -20.33512  eV     1   --> A_1  G_1 D_1   
     e(  3 -  4) =    -20.32677  eV     2   --> E    G_5 D_5   
     e(  5 -  5) =     -8.80254  eV     1   --> A_1  G_1 D_1   
     e(  6 -  6) =     -0.20607  eV     1   --> A_1  G_1 D_1   
     e(  7 -  8) =      1.09011  eV     2   --> E    G_5 D_5   
     e(  9 -  9) =      7.49636  eV     1   --> A_1  G_1 D_1   
     e( 10 - 10) =      8.01381  eV     1   --> B_2  G_4 D_2'  
     e( 11 - 11) =     12.05865  eV     1   --> A_1  G_1 D_1   
     e( 12 - 12) =     14.64899  eV     1   --> B_1  G_3 D_2   
     e( 13 - 14) =     14.78954  eV     2   --> E    G_5 D_5   
     e( 15 - 15) =     16.29986  eV     1   -->   ?

 **************************************************************************

 **************************************************************************

                    xk=(   0.00000,   0.00000,   0.97500  )

     Band symmetry, C_4v (4mm)  point group:

     e(  1 -  1) =    -48.39181  eV     1   --> A_1  G_1 D_1   
     e(  2 -  2) =    -20.33517  eV     1   --> A_1  G_1 D_1   
     e(  3 -  4) =    -20.32679  eV     2   --> E    G_5 D_5   
     e(  5 -  5) =     -8.80001  eV     1   --> A_1  G_1 D_1   
     e(  6 -  6) =     -0.21146  eV     1   --> A_1  G_1 D_1   
     e(  7 -  8) =      1.08714  eV     2   --> E    G_5 D_5   
     e(  9 -  9) =      7.48520  eV     1   --> A_1  G_1 D_1   
     e( 10 - 10) =      8.00628  eV     1   --> B_2  G_4 D_2'  
     e( 11 - 11) =     12.09303  eV     1   --> A_1  G_1 D_1   
     e( 12 - 12) =     14.66194  eV     1   --> B_1  G_3 D_2   
     e( 13 - 14) =     14.86084  eV     2   --> E    G_5 D_5   
     e( 15 - 15) =     16.22147  eV     1   -->   ?

 **************************************************************************

 **************************************************************************

                    xk=(   0.00000,   0.00000,   1.00000  )

     point group D_4h(4/mmm)
     there are 10 classes
     the character table:

       E     2C4   C2    2C2'  2C2'' i     2S4   s_h   2s_v  2s_d 
A_1g   1.00  1.00  1.00  1.00  1.00  1.00  1.00  1.00  1.00  1.00
A_2g   1.00  1.00  1.00 -1.00 -1.00  1.00  1.00  1.00 -1.00 -1.00
B_1g   1.00 -1.00  1.00  1.00 -1.00  1.00 -1.00  1.00  1.00 -1.00
B_2g   1.00 -1.00  1.00 -1.00  1.00  1.00 -1.00  1.00 -1.00  1.00
E_g    2.00  0.00 -2.00  0.00  0.00  2.00  0.00 -2.00  0.00  0.00
A_1u   1.00  1.00  1.00  1.00  1.00 -1.00 -1.00 -1.00 -1.00 -1.00
A_2u   1.00  1.00  1.00 -1.00 -1.00 -1.00 -1.00 -1.00  1.00  1.00
B_1u   1.00 -1.00  1.00  1.00 -1.00 -1.00  1.00 -1.00 -1.00  1.00
B_2u   1.00 -1.00  1.00 -1.00  1.00 -1.00  1.00 -1.00  1.00 -1.00
E_u    2.00  0.00 -2.00  0.00  0.00 -2.00  0.00  2.00  0.00  0.00

     the symmetry operations in each class and the name of the first element:

     E        1
                                                                 
     2C4      7    8
                                                                 
     C2       2
                                                                 
     2C2'     3    4
                                                                 
     2C2''    5    6
                                                                 
     i        9
                                                                 
     2S4     15   16
                                                                 
     s_h     10
                                                                 
     2s_v    11   12
                                                                 
     2s_d    13   14
                                                                 

     Band symmetry, D_4h(4/mmm) point group:

     e(  1 -  1) =    -48.39181  eV     1   --> A_1g X_1  M_1  
     e(  2 -  2) =    -20.33519  eV     1   --> A_2u X_4' M_4' 
     e(  3 -  4) =    -20.32680  eV     2   --> E_u  X_5' M_5' 
     e(  5 -  5) =     -8.79916  eV     1   --> A_1g X_1  M_1  
     e(  6 -  6) =     -0.21326  eV     1   --> A_2u X_4' M_4' 
     e(  7 -  8) =      1.08615  eV     2   --> E_u  X_5' M_5' 
     e(  9 -  9) =      7.48146  eV     1   --> A_1g X_1  M_1  
     e( 10 - 10) =      8.00377  eV     1   --> B_2g X_3  M_3  
     e( 11 - 11) =     12.10466  eV     1   --> A_2u X_4' M_4' 
     e( 12 - 12) =     14.66629  eV     1   --> B_1g X_2  M_2  
     e( 13 - 14) =     14.88653  eV     2   --> E_u  X_5' M_5' 
     e( 15 - 15) =     16.19341  eV     1   -->   ?

 **************************************************************************

 **************************************************************************

                    xk=(  -0.01250,   0.00000,   1.00000  )

     point group C_2v (mm2) 
     there are  4 classes
     the character table:

       E     C2    s_v   s_v' 
A_1    1.00  1.00  1.00  1.00
A_2    1.00  1.00 -1.00 -1.00
B_1    1.00 -1.00  1.00 -1.00
B_2    1.00 -1.00 -1.00  1.00

     the symmetry operations in each class and the name of the first element:

     E        1
                                                                 
     C2       2
                                                                 
     s_v      4
                                                                 
     s_v'     3
                                                                 

     Band symmetry, C_2v (mm2)  point group:

     e(  1 -  1) =    -48.39181  eV     1   --> A_1  D_1  S_1  
     e(  2 -  2) =    -20.33518  eV     1   --> B_1  D_3  S_3  
     e(  3 -  4) =    -20.32681  eV     2   --> A_1  D_1  S_1  
     e(  3 -  4) =    -20.32681  eV     2   --> B_2  D_4  S_4  
     e(  5 -  5) =     -8.79914  eV     1   --> A_1  D_1  S_1  
     e(  6 -  6) =     -0.21288  eV     1   --> B_1  D_3  S_3  
     e(  7 -  7) =      1.08546  eV     1   --> B_2  D_4  S_4  
     e(  8 -  8) =      1.08581  eV     1   --> A_1  D_1  S_1  
     e(  9 -  9) =      7.48297  eV     1   --> A_1  D_1  S_1  
     e( 10 - 10) =      8.00531  eV     1   --> B_2  D_4  S_4  
     e( 11 - 11) =     12.10277  eV     1   --> B_1  D_3  S_3  
     e( 12 - 12) =     14.62946  eV     1   --> A_1  D_1  S_1  
     e( 13 - 13) =     14.88701  eV     1   --> B_2  D_4  S_4  
     e( 14 - 14) =     14.92041  eV     1   --> A_1  D_1  S_1  
     e( 15 - 15) =     16.19348  eV     1   -->   ?

 **************************************************************************

 **************************************************************************

                    xk=(  -0.02500,   0.00000,   1.00000  )

     Band symmetry, C_2v (mm2)  point group:

     e(  1 -  1) =    -48.39181  eV     1   --> A_1  D_1  S_1  
     e(  2 -  2) =    -20.33517  eV     1   --> B_1  D_3  S_3  
     e(  3 -  4) =    -20.32682  eV     2   --> A_1  D_1  S_1  
     e(  3 -  4) =    -20.32682  eV     2   --> B_2  D_4  S_4  
     e(  5 -  5) =     -8.79906  eV     1   --> A_1  D_1  S_1  
     e(  6 -  6) =     -0.21173  eV     1   --> B_1  D_3  S_3  
     e(  7 -  7) =      1.08338  eV     1   --> B_2  D_4  S_4  
     e(  8 -  8) =      1.08479  eV     1   --> A_1  D_1  S_1  
     e(  9 -  9) =      7.48749  eV     1   --> A_1  D_1  S_1  
     e( 10 - 10) =      8.00993  eV     1   --> B_2  D_4  S_4  
     e( 11 - 11) =     12.09713  eV     1   --> B_1  D_3  S_3  
     e( 12 - 12) =     14.55107  eV     1   --> A_1  D_1  S_1  
     e( 13 - 13) =     14.88843  eV     1   --> B_2  D_4  S_4  
     e( 14 - 14) =     14.98995  eV     1   --> A_1  D_1  S_1  
     e( 15 - 15) =     16.19362  eV     1   -->   ?

 **************************************************************************

 **************************************************************************

                    xk=(  -0.03750,  -0.00000,   1.00000  )

     Band symmetry, C_2v (mm2)  point group:

     e(  1 -  1) =    -48.39181  eV     1   --> A_1  D_1  S_1  
     e(  2 -  2) =    -20.33516  eV     1   --> B_1  D_3  S_3  
     e(  3 -  4) =    -20.32683  eV     2   --> A_1  D_1  S_1  
     e(  3 -  4) =    -20.32683  eV     2   --> B_2  D_4  S_4  
     e(  5 -  5) =     -8.79892  eV     1   --> A_1  D_1  S_1  
     e(  6 -  6) =     -0.20982  eV     1   --> B_1  D_3  S_3  
     e(  7 -  7) =      1.07993  eV     1   --> B_2  D_4  S_4  
     e(  8 -  8) =      1.08309  eV     1   --> A_1  D_1  S_1  
     e(  9 -  9) =      7.49500  eV     1   --> A_1  D_1  S_1  
     e( 10 - 10) =      8.01761  eV     1   --> B_2  D_4  S_4  
     e( 11 - 11) =     12.08775  eV     1   --> B_1  D_3  S_3  
     e( 12 - 12) =     14.45859  eV     1   --> A_1  D_1  S_1  
     e( 13 - 13) =     14.89080  eV     1   --> B_2  D_4  S_4  
     e( 14 - 14) =     15.06770  eV     1   --> A_1  D_1  S_1  
     e( 15 - 15) =     16.19366  eV     1   -->   ?

 **************************************************************************

 **************************************************************************

                    xk=(  -0.05000,  -0.00000,   1.00000  )

     Band symmetry, C_2v (mm2)  point group:

     e(  1 -  1) =    -48.39181  eV     1   --> A_1  D_1  S_1  
     e(  2 -  2) =    -20.33514  eV     1   --> B_1  D_3  S_3  
     e(  3 -  4) =    -20.32685  eV     2   --> A_1  D_1  S_1  
     e(  3 -  4) =    -20.32685  eV     2   --> B_2  D_4  S_4  
     e(  5 -  5) =     -8.79873  eV     1   --> A_1  D_1  S_1  
     e(  6 -  6) =     -0.20715  eV     1   --> B_1  D_3  S_3  
     e(  7 -  7) =      1.07512  eV     1   --> B_2  D_4  S_4  
     e(  8 -  8) =      1.08073  eV     1   --> A_1  D_1  S_1  
     e(  9 -  9) =      7.50550  eV     1   --> A_1  D_1  S_1  
     e( 10 - 10) =      8.02834  eV     1   --> B_2  D_4  S_4  
     e( 11 - 11) =     12.07466  eV     1   --> B_1  D_3  S_3  
     e( 12 - 12) =     14.35989  eV     1   --> A_1  D_1  S_1  
     e( 13 - 13) =     14.89412  eV     1   --> B_2  D_4  S_4  
     e( 14 - 14) =     15.14579  eV     1   --> A_1  D_1  S_1  
     e( 15 - 15) =     16.19296  eV     1   -->   ?

 **************************************************************************

 **************************************************************************

                    xk=(  -0.06250,   0.00000,   1.00000  )

     Band symmetry, C_2v (mm2)  point group:

     e(  1 -  1) =    -48.39181  eV     1   --> A_1  D_1  S_1  
     e(  2 -  2) =    -20.33511  eV     1   --> B_1  D_3  S_3  
     e(  3 -  4) =    -20.32688  eV     2   --> A_1  D_1  S_1  
     e(  3 -  4) =    -20.32688  eV     2   --> B_2  D_4  S_4  
     e(  5 -  5) =     -8.79850  eV     1   --> A_1  D_1  S_1  
     e(  6 -  6) =     -0.20372  eV     1   --> B_1  D_3  S_3  
     e(  7 -  7) =      1.06896  eV     1   --> B_2  D_4  S_4  
     e(  8 -  8) =      1.07773  eV     1   --> A_1  D_1  S_1  
     e(  9 -  9) =      7.51894  eV     1   --> A_1  D_1  S_1  
     e( 10 - 10) =      8.04210  eV     1   --> B_2  D_4  S_4  
     e( 11 - 11) =     12.05790  eV     1   --> B_1  D_3  S_3  
     e( 12 - 12) =     14.25758  eV     1   --> A_1  D_1  S_1  
     e( 13 - 13) =     14.89838  eV     1   --> B_2  D_4  S_4  
     e( 14 - 14) =     15.22169  eV     1   --> A_1  D_1  S_1  
     e( 15 - 15) =     16.19255  eV     1   --> B_1  D_3  S_3  

 **************************************************************************

 **************************************************************************

                    xk=(  -0.07500,   0.00000,   1.00000  )

     Band symmetry, C_2v (mm2)  point group:

     e(  1 -  1) =    -48.39181  eV     1   --> A_1  D_1  S_1  
     e(  2 -  2) =    -20.33507  eV     1   --> B_1  D_3  S_3  
     e(  3 -  4) =    -20.32692  eV     2   --> A_1  D_1  S_1  
     e(  3 -  4) =    -20.32692  eV     2   --> B_2  D_4  S_4  
     e(  5 -  5) =     -8.79821  eV     1   --> A_1  D_1  S_1  
     e(  6 -  6) =     -0.19953  eV     1   --> B_1  D_3  S_3  
     e(  7 -  7) =      1.06149  eV     1   --> B_2  D_4  S_4  
     e(  8 -  8) =      1.07411  eV     1   --> A_1  D_1  S_1  
     e(  9 -  9) =      7.53530  eV     1   --> A_1  D_1  S_1  
     e( 10 - 10) =      8.05886  eV     1   --> B_2  D_4  S_4  
     e( 11 - 11) =     12.03755  eV     1   --> B_1  D_3  S_3  
     e( 12 - 12) =     14.15280  eV     1   --> A_1  D_1  S_1  
     e( 13 - 13) =     14.90358  eV     1   --> B_2  D_4  S_4  
     e( 14 - 14) =     15.29432  eV     1   --> A_1  D_1  S_1  
     e( 15 - 15) =     16.19190  eV     1   --> B_1  D_3  S_3  

 **************************************************************************

 **************************************************************************

                    xk=(  -0.08750,   0.00000,   1.00000  )

     Band symmetry, C_2v (mm2)  point group:

     e(  1 -  1) =    -48.39181  eV     1   --> A_1  D_1  S_1  
     e(  2 -  2) =    -20.33503  eV     1   --> B_1  D_3  S_3  
     e(  3 -  4) =    -20.32696  eV     2   --> A_1  D_1  S_1  
     e(  3 -  4) =    -20.32696  eV     2   --> B_2  D_4  S_4  
     e(  5 -  5) =     -8.79787  eV     1   --> A_1  D_1  S_1  
     e(  6 -  6) =     -0.19458  eV     1   --> B_1  D_3  S_3  
     e(  7 -  7) =      1.05271  eV     1   --> B_2  D_4  S_4  
     e(  8 -  8) =      1.06990  eV     1   --> A_1  D_1  S_1  
     e(  9 -  9) =      7.55452  eV     1   --> A_1  D_1  S_1  
     e( 10 - 10) =      8.07859  eV     1   --> B_2  D_4  S_4  
     e( 11 - 11) =     12.01366  eV     1   --> B_1  D_3  S_3  
     e( 12 - 12) =     14.04622  eV     1   --> A_1  D_1  S_1  
     e( 13 - 13) =     14.90973  eV     1   --> B_2  D_4  S_4  
     e( 14 - 14) =     15.36314  eV     1   --> A_1  D_1  S_1  
     e( 15 - 15) =     16.19096  eV     1   -->   ?

 **************************************************************************

 **************************************************************************

                    xk=(  -0.10000,  -0.00000,   1.00000  )

     Band symmetry, C_2v (mm2)  point group:

     e(  1 -  1) =    -48.39181  eV     1   --> A_1  D_1  S_1  
     e(  2 -  2) =    -20.33498  eV     1   --> B_1  D_3  S_3  
     e(  3 -  3) =    -20.32701  eV     1   --> B_2  D_4  S_4  
     e(  4 -  4) =    -20.32688  eV     1   --> A_1  D_1  S_1  
     e(  5 -  5) =     -8.79749  eV     1   --> A_1  D_1  S_1  
     e(  6 -  6) =     -0.18888  eV     1   --> B_1  D_3  S_3  
     e(  7 -  7) =      1.04268  eV     1   --> B_2  D_4  S_4  
     e(  8 -  8) =      1.06512  eV     1   --> A_1  D_1  S_1  
     e(  9 -  9) =      7.57657  eV     1   --> A_1  D_1  S_1  
     e( 10 - 10) =      8.10124  eV     1   --> B_2  D_4  S_4  
     e( 11 - 11) =     11.98631  eV     1   --> B_1  D_3  S_3  
     e( 12 - 12) =     13.93828  eV     1   --> A_1  D_1  S_1  
     e( 13 - 13) =     14.91683  eV     1   --> B_2  D_4  S_4  
     e( 14 - 14) =     15.42787  eV     1   --> A_1  D_1  S_1  
     e( 15 - 15) =     16.18952  eV     1   --> B_1  D_3  S_3  

 **************************************************************************

 **************************************************************************

                    xk=(  -0.11250,  -0.00000,   1.00000  )

     Band symmetry, C_2v (mm2)  point group:

     e(  1 -  1) =    -48.39181  eV     1   --> A_1  D_1  S_1  
     e(  2 -  2) =    -20.33493  eV     1   --> B_1  D_3  S_3  
     e(  3 -  3) =    -20.32706  eV     1   --> B_2  D_4  S_4  
     e(  4 -  4) =    -20.32690  eV     1   --> A_1  D_1  S_1  
     e(  5 -  5) =     -8.79706  eV     1   --> A_1  D_1  S_1  
     e(  6 -  6) =     -0.18244  eV     1   --> B_1  D_3  S_3  
     e(  7 -  7) =      1.03141  eV     1   --> B_2  D_4  S_4  
     e(  8 -  8) =      1.05980  eV     1   --> A_1  D_1  S_1  
     e(  9 -  9) =      7.60138  eV     1   --> A_1  D_1  S_1  
     e( 10 - 10) =      8.12678  eV     1   --> B_2  D_4  S_4  
     e( 11 - 11) =     11.95559  eV     1   --> B_1  D_3  S_3  
     e( 12 - 12) =     13.82932  eV     1   --> A_1  D_1  S_1  
     e( 13 - 13) =     14.92486  eV     1   --> B_2  D_4  S_4  
     e( 14 - 14) =     15.48838  eV     1   --> A_1  D_1  S_1  
     e( 15 - 15) =     16.18759  eV     1   --> B_1  D_3  S_3  

 **************************************************************************

 **************************************************************************

                    xk=(  -0.12500,   0.00000,   1.00000  )

     Band symmetry, C_2v (mm2)  point group:

     e(  1 -  1) =    -48.39181  eV     1   --> A_1  D_1  S_1  
     e(  2 -  2) =    -20.33487  eV     1   --> B_1  D_3  S_3  
     e(  3 -  3) =    -20.32712  eV     1   --> B_2  D_4  S_4  
     e(  4 -  4) =    -20.32692  eV     1   --> A_1  D_1  S_1  
     e(  5 -  5) =     -8.79660  eV     1   --> A_1  D_1  S_1  
     e(  6 -  6) =     -0.17524  eV     1   --> B_1  D_3  S_3  
     e(  7 -  7) =      1.01895  eV     1   --> B_2  D_4  S_4  
     e(  8 -  8) =      1.05400  eV     1   --> A_1  D_1  S_1  
     e(  9 -  9) =      7.62888  eV     1   --> A_1  D_1  S_1  
     e( 10 - 10) =      8.15515  eV     1   --> B_2  D_4  S_4  
     e( 11 - 11) =     11.92161  eV     1   --> B_1  D_3  S_3  
     e( 12 - 12) =     13.71964  eV     1   --> A_1  D_1  S_1  
     e( 13 - 13) =     14.93382  eV     1   --> B_2  D_4  S_4  
     e( 14 - 14) =     15.54466  eV     1   --> A_1  D_1  S_1  
     e( 15 - 15) =     16.18503  eV     1   --> B_1  D_3  S_3  

 **************************************************************************

 **************************************************************************

                    xk=(  -0.13750,   0.00000,   1.00000  )

     Band symmetry, C_2v (mm2)  point group:

     e(  1 -  1) =    -48.39181  eV     1   --> A_1  D_1  S_1  
     e(  2 -  2) =    -20.33480  eV     1   --> B_1  D_3  S_3  
     e(  3 -  3) =    -20.32719  eV     1   --> B_2  D_4  S_4  
     e(  4 -  4) =    -20.32695  eV     1   --> A_1  D_1  S_1  
     e(  5 -  5) =     -8.79609  eV     1   --> A_1  D_1  S_1  
     e(  6 -  6) =     -0.16731  eV     1   --> B_1  D_3  S_3  
     e(  7 -  7) =      1.00534  eV     1   --> B_2  D_4  S_4  
     e(  8 -  8) =      1.04774  eV     1   --> A_1  D_1  S_1  
     e(  9 -  9) =      7.65901  eV     1   --> A_1  D_1  S_1  
     e( 10 - 10) =      8.18630  eV     1   --> B_2  D_4  S_4  
     e( 11 - 11) =     11.88444  eV     1   --> B_1  D_3  S_3  
     e( 12 - 12) =     13.60947  eV     1   --> A_1  D_1  S_1  
     e( 13 - 13) =     14.94372  eV     1   --> B_2  D_4  S_4  
     e( 14 - 14) =     15.59678  eV     1   --> A_1  D_1  S_1  
     e( 15 - 15) =     16.18172  eV     1   --> B_1  D_3  S_3  

 **************************************************************************

 **************************************************************************

                    xk=(  -0.15000,   0.00000,   1.00000  )

     Band symmetry, C_2v (mm2)  point group:

     e(  1 -  1) =    -48.39181  eV     1   --> A_1  D_1  S_1  
     e(  2 -  2) =    -20.33473  eV     1   --> B_1  D_3  S_3  
     e(  3 -  3) =    -20.32726  eV     1   --> B_2  D_4  S_4  
     e(  4 -  4) =    -20.32697  eV     1   --> A_1  D_1  S_1  
     e(  5 -  5) =     -8.79555  eV     1   --> A_1  D_1  S_1  
     e(  6 -  6) =     -0.15864  eV     1   --> B_1  D_3  S_3  
     e(  7 -  7) =      0.99063  eV     1   --> B_2  D_4  S_4  
     e(  8 -  8) =      1.04107  eV     1   --> A_1  D_1  S_1  
     e(  9 -  9) =      7.69167  eV     1   --> A_1  D_1  S_1  
     e( 10 - 10) =      8.22017  eV     1   --> B_2  D_4  S_4  
     e( 11 - 11) =     11.84422  eV     1   --> B_1  D_3  S_3  
     e( 12 - 12) =     13.49905  eV     1   --> A_1  D_1  S_1  
     e( 13 - 13) =     14.95456  eV     1   --> B_2  D_4  S_4  
     e( 14 - 14) =     15.64488  eV     1   --> A_1  D_1  S_1  
     e( 15 - 15) =     16.17756  eV     1   --> B_1  D_3  S_3  

 **************************************************************************

 **************************************************************************

                    xk=(  -0.16250,  -0.00000,   1.00000  )

     Band symmetry, C_2v (mm2)  point group:

     e(  1 -  1) =    -48.39181  eV     1   --> A_1  D_1  S_1  
     e(  2 -  2) =    -20.33465  eV     1   --> B_1  D_3  S_3  
     e(  3 -  3) =    -20.32734  eV     1   --> B_2  D_4  S_4  
     e(  4 -  4) =    -20.32700  eV     1   --> A_1  D_1  S_1  
     e(  5 -  5) =     -8.79498  eV     1   --> A_1  D_1  S_1  
     e(  6 -  6) =     -0.14924  eV     1   --> B_1  D_3  S_3  
     e(  7 -  7) =      0.97487  eV     1   --> B_2  D_4  S_4  
     e(  8 -  8) =      1.03403  eV     1   --> A_1  D_1  S_1  
     e(  9 -  9) =      7.72677  eV     1   --> A_1  D_1  S_1  
     e( 10 - 10) =      8.25671  eV     1   --> B_2  D_4  S_4  
     e( 11 - 11) =     11.80105  eV     1   --> B_1  D_3  S_3  
     e( 12 - 12) =     13.38857  eV     1   --> A_1  D_1  S_1  
     e( 13 - 13) =     14.96631  eV     1   --> B_2  D_4  S_4  
     e( 14 - 14) =     15.68916  eV     1   --> A_1  D_1  S_1  
     e( 15 - 15) =     16.17244  eV     1   --> B_1  D_3  S_3  

 **************************************************************************

 **************************************************************************

                    xk=(  -0.17500,  -0.00000,   1.00000  )

     Band symmetry, C_2v (mm2)  point group:

     e(  1 -  1) =    -48.39181  eV     1   --> A_1  D_1  S_1  
     e(  2 -  2) =    -20.33457  eV     1   --> B_1  D_3  S_3  
     e(  3 -  3) =    -20.32742  eV     1   --> B_2  D_4  S_4  
     e(  4 -  4) =    -20.32703  eV     1   --> A_1  D_1  S_1  
     e(  5 -  5) =     -8.79438  eV     1   --> A_1  D_1  S_1  
     e(  6 -  6) =     -0.13912  eV     1   --> B_1  D_3  S_3  
     e(  7 -  7) =      0.95810  eV     1   --> B_2  D_4  S_4  
     e(  8 -  8) =      1.02668  eV     1   --> A_1  D_1  S_1  
     e(  9 -  9) =      7.76422  eV     1   --> A_1  D_1  S_1  
     e( 10 - 10) =      8.29584  eV     1   --> B_2  D_4  S_4  
     e( 11 - 11) =     11.75504  eV     1   --> B_1  D_3  S_3  
     e( 12 - 12) =     13.27823  eV     1   --> A_1  D_1  S_1  
     e( 13 - 13) =     14.97899  eV     1   --> B_2  D_4  S_4  
     e( 14 - 14) =     15.72985  eV     1   --> A_1  D_1  S_1  
     e( 15 - 15) =     16.16624  eV     1   --> B_1  D_3  S_3  

 **************************************************************************

 **************************************************************************

                    xk=(  -0.18750,   0.00000,   1.00000  )

     Band symmetry, C_2v (mm2)  point group:

     e(  1 -  1) =    -48.39181  eV     1   --> A_1  D_1  S_1  
     e(  2 -  2) =    -20.33448  eV     1   --> B_1  D_3  S_3  
     e(  3 -  3) =    -20.32751  eV     1   --> B_2  D_4  S_4  
     e(  4 -  4) =    -20.32706  eV     1   --> A_1  D_1  S_1  
     e(  5 -  5) =     -8.79375  eV     1   --> A_1  D_1  S_1  
     e(  6 -  6) =     -0.12828  eV     1   --> B_1  D_3  S_3  
     e(  7 -  7) =      0.94037  eV     1   --> B_2  D_4  S_4  
     e(  8 -  8) =      1.01906  eV     1   --> A_1  D_1  S_1  
     e(  9 -  9) =      7.80391  eV     1   --> A_1  D_1  S_1  
     e( 10 - 10) =      8.33749  eV     1   --> B_2  D_4  S_4  
     e( 11 - 11) =     11.70632  eV     1   --> B_1  D_3  S_3  
     e( 12 - 12) =     13.16821  eV     1   --> A_1  D_1  S_1  
     e( 13 - 13) =     14.99258  eV     1   --> B_2  D_4  S_4  
     e( 14 - 14) =     15.76718  eV     1   --> A_1  D_1  S_1  
     e( 15 - 15) =     16.15888  eV     1   --> B_1  D_3  S_3  

 **************************************************************************

 **************************************************************************

                    xk=(  -0.20000,   0.00000,   1.00000  )

     Band symmetry, C_2v (mm2)  point group:

     e(  1 -  1) =    -48.39181  eV     1   --> A_1  D_1  S_1  
     e(  2 -  2) =    -20.33438  eV     1   --> B_1  D_3  S_3  
     e(  3 -  3) =    -20.32760  eV     1   --> B_2  D_4  S_4  
     e(  4 -  4) =    -20.32709  eV     1   --> A_1  D_1  S_1  
     e(  5 -  5) =     -8.79310  eV     1   --> A_1  D_1  S_1  
     e(  6 -  6) =     -0.11673  eV     1   --> B_1  D_3  S_3  
     e(  7 -  7) =      0.92174  eV     1   --> B_2  D_4  S_4  
     e(  8 -  8) =      1.01122  eV     1   --> A_1  D_1  S_1  
     e(  9 -  9) =      7.84573  eV     1   --> A_1  D_1  S_1  
     e( 10 - 10) =      8.38160  eV     1   --> B_2  D_4  S_4  
     e( 11 - 11) =     11.65501  eV     1   --> B_1  D_3  S_3  
     e( 12 - 12) =     13.05870  eV     1   --> A_1  D_1  S_1  
     e( 13 - 13) =     15.00708  eV     1   --> B_2  D_4  S_4  
     e( 14 - 14) =     15.80143  eV     1   --> A_1  D_1  S_1  
     e( 15 - 15) =     16.15028  eV     1   --> B_1  D_3  S_3  

 **************************************************************************

 **************************************************************************

                    xk=(  -0.21250,   0.00000,   1.00000  )

     Band symmetry, C_2v (mm2)  point group:

     e(  1 -  1) =    -48.39181  eV     1   --> A_1  D_1  S_1  
     e(  2 -  2) =    -20.33428  eV     1   --> B_1  D_3  S_3  
     e(  3 -  3) =    -20.32770  eV     1   --> B_2  D_4  S_4  
     e(  4 -  4) =    -20.32712  eV     1   --> A_1  D_1  S_1  
     e(  5 -  5) =     -8.79244  eV     1   --> A_1  D_1  S_1  
     e(  6 -  6) =     -0.10448  eV     1   --> B_1  D_3  S_3  
     e(  7 -  7) =      0.90226  eV     1   --> B_2  D_4  S_4  
     e(  8 -  8) =      1.00322  eV     1   --> A_1  D_1  S_1  
     e(  9 -  9) =      7.88954  eV     1   --> A_1  D_1  S_1  
     e( 10 - 10) =      8.42808  eV     1   --> B_2  D_4  S_4  
     e( 11 - 11) =     11.60123  eV     1   --> B_1  D_3  S_3  
     e( 12 - 12) =     12.94986  eV     1   --> A_1  D_1  S_1  
     e( 13 - 13) =     15.02249  eV     1   --> B_2  D_4  S_4  
     e( 14 - 14) =     15.83283  eV     1   --> A_1  D_1  S_1  
     e( 15 - 15) =     16.14035  eV     1   --> B_1  D_3  S_3  

 **************************************************************************

 **************************************************************************

                    xk=(  -0.22500,  -0.00000,   1.00000  )

     Band symmetry, C_2v (mm2)  point group:

     e(  1 -  1) =    -48.39181  eV     1   --> A_1  D_1  S_1  
     e(  2 -  2) =    -20.33418  eV     1   --> B_1  D_3  S_3  
     e(  3 -  3) =    -20.32780  eV     1   --> B_2  D_4  S_4  
     e(  4 -  4) =    -20.32715  eV     1   --> A_1  D_1  S_1  
     e(  5 -  5) =     -8.79176  eV     1   --> A_1  D_1  S_1  
     e(  6 -  6) =     -0.09153  eV     1   --> B_1  D_3  S_3  
     e(  7 -  7) =      0.88199  eV     1   --> B_2  D_4  S_4  
     e(  8 -  8) =      0.99510  eV     1   --> A_1  D_1  S_1  
     e(  9 -  9) =      7.93520  eV     1   --> A_1  D_1  S_1  
     e( 10 - 10) =      8.47687  eV     1   --> B_2  D_4  S_4  
     e( 11 - 11) =     11.54511  eV     1   --> B_1  D_3  S_3  
     e( 12 - 12) =     12.84188  eV     1   --> A_1  D_1  S_1  
     e( 13 - 13) =     15.03879  eV     1   --> B_2  D_4  S_4  
     e( 14 - 14) =     15.86163  eV     1   --> A_1  D_1  S_1  
     e( 15 - 15) =     16.12903  eV     1   --> B_1  D_3  S_3  

 **************************************************************************

 **************************************************************************

                    xk=(  -0.23750,  -0.00000,   1.00000  )

     Band symmetry, C_2v (mm2)  point group:

     e(  1 -  1) =    -48.39181  eV     1   --> A_1  D_1  S_1  
     e(  2 -  2) =    -20.33407  eV     1   --> B_1  D_3  S_3  
     e(  3 -  3) =    -20.32791  eV     1   --> B_2  D_4  S_4  
     e(  4 -  4) =    -20.32718  eV     1   --> A_1  D_1  S_1  
     e(  5 -  5) =     -8.79108  eV     1   --> A_1  D_1  S_1  
     e(  6 -  6) =     -0.07790  eV     1   --> B_1  D_3  S_3  
     e(  7 -  7) =      0.86098  eV     1   --> B_2  D_4  S_4  
     e(  8 -  8) =      0.98691  eV     1   --> A_1  D_1  S_1  
     e(  9 -  9) =      7.98257  eV     1   --> A_1  D_1  S_1  
     e( 10 - 10) =      8.52789  eV     1   --> B_2  D_4  S_4  
     e( 11 - 11) =     11.48677  eV     1   --> B_1  D_3  S_3  
     e( 12 - 12) =     12.73495  eV     1   --> A_1  D_1  S_1  
     e( 13 - 13) =     15.05598  eV     1   --> B_2  D_4  S_4  
     e( 14 - 14) =     15.88806  eV     1   --> A_1  D_1  S_1  
     e( 15 - 15) =     16.11630  eV     1   --> B_1  D_3  S_3  

 **************************************************************************

 **************************************************************************

                    xk=(  -0.25000,   0.00000,   1.00000  )

     Band symmetry, C_2v (mm2)  point group:

     e(  1 -  1) =    -48.39181  eV     1   --> A_1  D_1  S_1  
     e(  2 -  2) =    -20.33395  eV     1   --> B_1  D_3  S_3  
     e(  3 -  3) =    -20.32803  eV     1   --> B_2  D_4  S_4  
     e(  4 -  4) =    -20.32721  eV     1   --> A_1  D_1  S_1  
     e(  5 -  5) =     -8.79039  eV     1   --> A_1  D_1  S_1  
     e(  6 -  6) =     -0.06360  eV     1   --> B_1  D_3  S_3  
     e(  7 -  7) =      0.83929  eV     1   --> B_2  D_4  S_4  
     e(  8 -  8) =      0.97872  eV     1   --> A_1  D_1  S_1  
     e(  9 -  9) =      8.03148  eV     1   --> A_1  D_1  S_1  
     e( 10 - 10) =      8.58104  eV     1   --> B_2  D_4  S_4  
     e( 11 - 11) =     11.42633  eV     1   --> B_1  D_3  S_3  
     e( 12 - 12) =     12.62923  eV     1   --> A_1  D_1  S_1  
     e( 13 - 13) =     15.07404  eV     1   --> B_2  D_4  S_4  
     e( 14 - 14) =     15.91233  eV     1   --> A_1  D_1  S_1  
     e( 15 - 15) =     16.10211  eV     1   --> B_1  D_3  S_3  

 **************************************************************************

 **************************************************************************

                    xk=(  -0.26250,   0.00000,   1.00000  )

     Band symmetry, C_2v (mm2)  point group:

     e(  1 -  1) =    -48.39181  eV     1   --> A_1  D_1  S_1  
     e(  2 -  2) =    -20.33383  eV     1   --> B_1  D_3  S_3  
     e(  3 -  3) =    -20.32814  eV     1   --> B_2  D_4  S_4  
     e(  4 -  4) =    -20.32725  eV     1   --> A_1  D_1  S_1  
     e(  5 -  5) =     -8.78969  eV     1   --> A_1  D_1  S_1  
     e(  6 -  6) =     -0.04863  eV     1   --> B_1  D_3  S_3  
     e(  7 -  7) =      0.81697  eV     1   --> B_2  D_4  S_4  
     e(  8 -  8) =      0.97056  eV     1   --> A_1  D_1  S_1  
     e(  9 -  9) =      8.08175  eV     1   --> A_1  D_1  S_1  
     e( 10 - 10) =      8.63626  eV     1   --> B_2  D_4  S_4  
     e( 11 - 11) =     11.36393  eV     1   --> B_1  D_3  S_3  
     e( 12 - 12) =     12.52494  eV     1   --> A_1  D_1  S_1  
     e( 13 - 13) =     15.09297  eV     1   --> B_2  D_4  S_4  
     e( 14 - 14) =     15.93463  eV     1   --> A_1  D_1  S_1  
     e( 15 - 15) =     16.08646  eV     1   --> B_1  D_3  S_3  

 **************************************************************************

 **************************************************************************

                    xk=(  -0.27500,   0.00000,   1.00000  )

     Band symmetry, C_2v (mm2)  point group:

     e(  1 -  1) =    -48.39181  eV     1   --> A_1  D_1  S_1  
     e(  2 -  2) =    -20.33371  eV     1   --> B_1  D_3  S_3  
     e(  3 -  3) =    -20.32827  eV     1   --> B_2  D_4  S_4  
     e(  4 -  4) =    -20.32728  eV     1   --> A_1  D_1  S_1  
     e(  5 -  5) =     -8.78901  eV     1   --> A_1  D_1  S_1  
     e(  6 -  6) =     -0.03300  eV     1   --> B_1  D_3  S_3  
     e(  7 -  7) =      0.79409  eV     1   --> B_2  D_4  S_4  
     e(  8 -  8) =      0.96248  eV     1   --> A_1  D_1  S_1  
     e(  9 -  9) =      8.13319  eV     1   --> A_1  D_1  S_1  
     e( 10 - 10) =      8.69346  eV     1   --> B_2  D_4  S_4  
     e( 11 - 11) =     11.29969  eV     1   --> B_1  D_3  S_3  
     e( 12 - 12) =     12.42228  eV     1   --> A_1  D_1  S_1  
     e( 13 - 13) =     15.11275  eV     1   --> B_2  D_4  S_4  
     e( 14 - 14) =     15.95513  eV     1   --> A_1  D_1  S_1  
     e( 15 - 15) =     16.06935  eV     1   --> B_1  D_3  S_3  

 **************************************************************************

 **************************************************************************

                    xk=(  -0.28750,  -0.00000,   1.00000  )

     Band symmetry, C_2v (mm2)  point group:

     e(  1 -  1) =    -48.39181  eV     1   --> A_1  D_1  S_1  
     e(  2 -  2) =    -20.33358  eV     1   --> B_1  D_3  S_3  
     e(  3 -  3) =    -20.32839  eV     1   --> B_2  D_4  S_4  
     e(  4 -  4) =    -20.32731  eV     1   --> A_1  D_1  S_1  
     e(  5 -  5) =     -8.78833  eV     1   --> A_1  D_1  S_1  
     e(  6 -  6) =     -0.01674  eV     1   --> B_1  D_3  S_3  
     e(  7 -  7) =      0.77069  eV     1   --> B_2  D_4  S_4  
     e(  8 -  8) =      0.95454  eV     1   --> A_1  D_1  S_1  
     e(  9 -  9) =      8.18557  eV     1   --> A_1  D_1  S_1  
     e( 10 - 10) =      8.75254  eV     1   --> B_2  D_4  S_4  
     e( 11 - 11) =     11.23372  eV     1   --> B_1  D_3  S_3  
     e( 12 - 12) =     12.32148  eV     1   --> A_1  D_1  S_1  
     e( 13 - 13) =     15.13337  eV     1   --> B_2  D_4  S_4  
     e( 14 - 14) =     15.97397  eV     1   --> A_1  D_1  S_1  
     e( 15 - 15) =     16.05081  eV     1   --> B_1  D_3  S_3  

 **************************************************************************

 **************************************************************************

                    xk=(  -0.30000,   0.00000,   1.00000  )

     Band symmetry, C_2v (mm2)  point group:

     e(  1 -  1) =    -48.39181  eV     1   --> A_1  D_1  S_1  
     e(  2 -  2) =    -20.33345  eV     1   --> B_1  D_3  S_3  
     e(  3 -  3) =    -20.32852  eV     1   --> B_2  D_4  S_4  
     e(  4 -  4) =    -20.32734  eV     1   --> A_1  D_1  S_1  
     e(  5 -  5) =     -8.78766  eV     1   --> A_1  D_1  S_1  
     e(  6 -  6) =      0.00015  eV     1   --> B_1  D_3  S_3  
     e(  7 -  7) =      0.74682  eV     1   --> B_2  D_4  S_4  
     e(  8 -  8) =      0.94679  eV     1   --> A_1  D_1  S_1  
     e(  9 -  9) =      8.23866  eV     1   --> A_1  D_1  S_1  
     e( 10 - 10) =      8.81344  eV     1   --> B_2  D_4  S_4  
     e( 11 - 11) =     11.16615  eV     1   --> B_1  D_3  S_3  
     e( 12 - 12) =     12.22277  eV     1   --> A_1  D_1  S_1  
     e( 13 - 13) =     15.15482  eV     1   --> B_2  D_4  S_4  
     e( 14 - 14) =     15.99128  eV     1   --> A_1  D_1  S_1  
     e( 15 - 15) =     16.03087  eV     1   --> B_1  D_3  S_3  

 **************************************************************************

 **************************************************************************

                    xk=(  -0.31250,   0.00000,   1.00000  )

     Band symmetry, C_2v (mm2)  point group:

     e(  1 -  1) =    -48.39181  eV     1   --> A_1  D_1  S_1  
     e(  2 -  2) =    -20.33332  eV     1   --> B_1  D_3  S_3  
     e(  3 -  3) =    -20.32866  eV     1   --> B_2  D_4  S_4  
     e(  4 -  4) =    -20.32737  eV     1   --> A_1  D_1  S_1  
     e(  5 -  5) =     -8.78702  eV     1   --> A_1  D_1  S_1  
     e(  6 -  6) =      0.01766  eV     1   --> B_1  D_3  S_3  
     e(  7 -  7) =      0.72255  eV     1   --> B_2  D_4  S_4  
     e(  8 -  8) =      0.93926  eV     1   --> A_1  D_1  S_1  
     e(  9 -  9) =      8.29219  eV     1   --> A_1  D_1  S_1  
     e( 10 - 10) =      8.87605  eV     1   --> B_2  D_4  S_4  
     e( 11 - 11) =     11.09709  eV     1   --> B_1  D_3  S_3  
     e( 12 - 12) =     12.12643  eV     1   --> A_1  D_1  S_1  
     e( 13 - 13) =     15.17707  eV     1   --> B_2  D_4  S_4  
     e( 14 - 14) =     16.00718  eV     1   --> A_1  D_1  S_1  
     e( 15 - 15) =     16.00958  eV     1   --> B_1  D_3  S_3  

 **************************************************************************

 **************************************************************************

                    xk=(  -0.32500,   0.00000,   1.00000  )

     Band symmetry, C_2v (mm2)  point group:

     e(  1 -  1) =    -48.39181  eV     1   --> A_1  D_1  S_1  
     e(  2 -  2) =    -20.33318  eV     1   --> B_1  D_3  S_3  
     e(  3 -  3) =    -20.32880  eV     1   --> B_2  D_4  S_4  
     e(  4 -  4) =    -20.32740  eV     1   --> A_1  D_1  S_1  
     e(  5 -  5) =     -8.78639  eV     1   --> A_1  D_1  S_1  
     e(  6 -  6) =      0.03577  eV     1   --> B_1  D_3  S_3  
     e(  7 -  7) =      0.69793  eV     1   --> B_2  D_4  S_4  
     e(  8 -  8) =      0.93200  eV     1   --> A_1  D_1  S_1  
     e(  9 -  9) =      8.34585  eV     1   --> A_1  D_1  S_1  
     e( 10 - 10) =      8.94030  eV     1   --> B_2  D_4  S_4  
     e( 11 - 11) =     11.02668  eV     1   --> B_1  D_3  S_3  
     e( 12 - 12) =     12.03276  eV     1   --> A_1  D_1  S_1  
[...]
     e(  5 -  5) =     -9.17243  eV     1   --> A_1  L_1       
     e(  6 -  6) =      0.64960  eV     1   --> A_1  L_1       
     e(  7 -  8) =      1.70087  eV     2   --> E    L_3       
     e(  9 -  9) =      7.20024  eV     1   --> A_1  L_1       
     e( 10 - 10) =     10.11472  eV     1   --> A_1  L_1       
     e( 11 - 12) =     11.10372  eV     2   --> E    L_3       
     e( 13 - 14) =     12.65125  eV     2   --> E    L_3       
     e( 15 - 15) =     15.16615  eV     1   --> A_1  L_1       

 **************************************************************************

 **************************************************************************

                    xk=(  -0.21250,  -0.21250,   0.21250  )

     Band symmetry, C_3v (3m)   point group:

     e(  1 -  1) =    -48.39225  eV     1   --> A_1  L_1       
     e(  2 -  2) =    -20.32814  eV     1   --> A_1  L_1       
     e(  3 -  4) =    -20.32170  eV     2   --> E    L_3       
     e(  5 -  5) =     -9.18984  eV     1   --> A_1  L_1       
     e(  6 -  6) =      0.74010  eV     1   --> A_1  L_1       
     e(  7 -  8) =      1.71306  eV     2   --> E    L_3       
     e(  9 -  9) =      7.12310  eV     1   --> A_1  L_1       
     e( 10 - 10) =     10.11787  eV     1   --> A_1  L_1       
     e( 11 - 12) =     11.11600  eV     2   --> E    L_3       
     e( 13 - 14) =     12.59553  eV     2   --> E    L_3       
     e( 15 - 15) =     15.22592  eV     1   --> A_1  L_1       

 **************************************************************************

 **************************************************************************

                    xk=(  -0.20000,  -0.20000,   0.20000  )

     Band symmetry, C_3v (3m)   point group:

     e(  1 -  1) =    -48.39227  eV     1   --> A_1  L_1       
     e(  2 -  2) =    -20.32744  eV     1   --> A_1  L_1       
     e(  3 -  4) =    -20.32164  eV     2   --> E    L_3       
     e(  5 -  5) =     -9.20680  eV     1   --> A_1  L_1       
     e(  6 -  6) =      0.83130  eV     1   --> A_1  L_1       
     e(  7 -  8) =      1.72510  eV     2   --> E    L_3       
     e(  9 -  9) =      7.04015  eV     1   --> A_1  L_1       
     e( 10 - 10) =     10.13207  eV     1   --> A_1  L_1       
     e( 11 - 12) =     11.12129  eV     2   --> E    L_3       
     e( 13 - 14) =     12.55384  eV     2   --> E    L_3       
     e( 15 - 15) =     15.28091  eV     1   --> A_1  L_1       

 **************************************************************************

 **************************************************************************

                    xk=(  -0.18750,  -0.18750,   0.18750  )

     Band symmetry, C_3v (3m)   point group:

     e(  1 -  1) =    -48.39228  eV     1   --> A_1  L_1       
     e(  2 -  2) =    -20.32677  eV     1   --> A_1  L_1       
     e(  3 -  4) =    -20.32158  eV     2   --> E    L_3       
     e(  5 -  5) =     -9.22321  eV     1   --> A_1  L_1       
     e(  6 -  6) =      0.92271  eV     1   --> A_1  L_1       
     e(  7 -  8) =      1.73691  eV     2   --> E    L_3       
     e(  9 -  9) =      6.95252  eV     1   --> A_1  L_1       
     e( 10 - 10) =     10.15645  eV     1   --> A_1  L_1       
     e( 11 - 12) =     11.11922  eV     2   --> E    L_3       
     e( 13 - 14) =     12.52635  eV     2   --> E    L_3       
     e( 15 - 15) =     15.32781  eV     1   --> A_1  L_1       

 **************************************************************************

 **************************************************************************

                    xk=(  -0.17500,  -0.17500,   0.17500  )

     Band symmetry, C_3v (3m)   point group:

     e(  1 -  1) =    -48.39230  eV     1   --> A_1  L_1       
     e(  2 -  2) =    -20.32611  eV     1   --> A_1  L_1       
     e(  3 -  4) =    -20.32152  eV     2   --> E    L_3       
     e(  5 -  5) =     -9.23899  eV     1   --> A_1  L_1       
     e(  6 -  6) =      1.01381  eV     1   --> A_1  L_1       
     e(  7 -  8) =      1.74842  eV     2   --> E    L_3       
     e(  9 -  9) =      6.86147  eV     1   --> A_1  L_1       
     e( 10 - 10) =     10.18999  eV     1   --> A_1  L_1       
     e( 11 - 12) =     11.10993  eV     2   --> E    L_3       
     e( 13 - 14) =     12.51264  eV     2   --> E    L_3       
     e( 15 - 15) =     15.36176  eV     1   --> A_1  L_1       

 **************************************************************************

 **************************************************************************

                    xk=(  -0.16250,  -0.16250,   0.16250  )

     Band symmetry, C_3v (3m)   point group:

     e(  1 -  1) =    -48.39231  eV     1   --> A_1  L_1       
     e(  2 -  2) =    -20.32548  eV     1   --> A_1  L_1       
     e(  3 -  4) =    -20.32147  eV     2   --> E    L_3       
     e(  5 -  5) =     -9.25405  eV     1   --> A_1  L_1       
     e(  6 -  6) =      1.10402  eV     1   --> A_1  L_1       
     e(  7 -  8) =      1.75955  eV     2   --> E    L_3       
     e(  9 -  9) =      6.76831  eV     1   --> A_1  L_1       
     e( 10 - 10) =     10.23154  eV     1   --> A_1  L_1       
     e( 11 - 12) =     11.09412  eV     2   --> E    L_3       
     e( 13 - 14) =     12.51170  eV     2   --> E    L_3       
     e( 15 - 15) =     15.37591  eV     1   --> A_1  L_1       

 **************************************************************************

 **************************************************************************

                    xk=(  -0.15000,  -0.15000,   0.15000  )

     Band symmetry, C_3v (3m)   point group:

     e(  1 -  1) =    -48.39233  eV     1   --> A_1  L_1       
     e(  2 -  2) =    -20.32488  eV     1   --> A_1  L_1       
     e(  3 -  4) =    -20.32141  eV     2   --> E    L_3       
     e(  5 -  5) =     -9.26832  eV     1   --> A_1  L_1       
     e(  6 -  6) =      1.19270  eV     1   --> A_1  L_1       
     e(  7 -  8) =      1.77023  eV     2   --> E    L_3       
     e(  9 -  9) =      6.67437  eV     1   --> A_1  L_1       
     e( 10 - 10) =     10.27990  eV     1   --> A_1  L_1       
     e( 11 - 12) =     11.07294  eV     2   --> E    L_3       
     e( 13 - 14) =     12.52197  eV     2   --> E    L_3       
     e( 15 - 15) =     15.36204  eV     1   --> A_1  L_1       

 **************************************************************************

 **************************************************************************

                    xk=(  -0.13750,  -0.13750,   0.13750  )

     Band symmetry, C_3v (3m)   point group:

     e(  1 -  1) =    -48.39234  eV     1   --> A_1  L_1       
     e(  2 -  2) =    -20.32431  eV     1   --> A_1  L_1       
     e(  3 -  4) =    -20.32136  eV     2   --> E    L_3       
     e(  5 -  5) =     -9.28171  eV     1   --> A_1  L_1       
     e(  6 -  6) =      1.27916  eV     1   --> A_1  L_1       
     e(  7 -  8) =      1.78037  eV     2   --> E    L_3       
     e(  9 -  9) =      6.58099  eV     1   --> A_1  L_1       
     e( 10 - 10) =     10.33377  eV     1   --> A_1  L_1       
     e( 11 - 12) =     11.04778  eV     2   --> E    L_3       
     e( 13 - 14) =     12.54158  eV     2   --> E    L_3       
     e( 15 - 15) =     15.31391  eV     1   --> A_1  L_1       

 **************************************************************************

 **************************************************************************

                    xk=(  -0.12500,  -0.12500,   0.12500  )

     Band symmetry, C_3v (3m)   point group:

     e(  1 -  1) =    -48.39236  eV     1   --> A_1  L_1       
     e(  2 -  2) =    -20.32378  eV     1   --> A_1  L_1       
     e(  3 -  4) =    -20.32132  eV     2   --> E    L_3       
     e(  5 -  5) =     -9.29417  eV     1   --> A_1  L_1       
     e(  6 -  6) =      1.36265  eV     1   --> A_1  L_1       
     e(  7 -  8) =      1.78990  eV     2   --> E    L_3       
     e(  9 -  9) =      6.48952  eV     1   --> A_1  L_1       
     e( 10 - 10) =     10.39178  eV     1   --> A_1  L_1       
     e( 11 - 12) =     11.02011  eV     2   --> E    L_3       
     e( 13 - 14) =     12.56849  eV     2   --> E    L_3       
     e( 15 - 15) =     15.23230  eV     1   --> A_1  L_1       

 **************************************************************************

 **************************************************************************

                    xk=(  -0.11250,  -0.11250,   0.11250  )

     Band symmetry, C_3v (3m)   point group:

     e(  1 -  1) =    -48.39237  eV     1   --> A_1  L_1       
     e(  2 -  2) =    -20.32329  eV     1   --> A_1  L_1       
     e(  3 -  4) =    -20.32127  eV     2   --> E    L_3       
     e(  5 -  5) =     -9.30563  eV     1   --> A_1  L_1       
     e(  6 -  6) =      1.44235  eV     1   --> A_1  L_1       
     e(  7 -  8) =      1.79876  eV     2   --> E    L_3       
     e(  9 -  9) =      6.40126  eV     1   --> A_1  L_1       
     e( 10 - 10) =     10.45249  eV     1   --> A_1  L_1       
     e( 11 - 12) =     10.99134  eV     2   --> E    L_3       
     e( 13 - 14) =     12.60063  eV     2   --> E    L_3       
     e( 15 - 15) =     15.12586  eV     1   --> A_1  L_1       

 **************************************************************************

 **************************************************************************

                    xk=(  -0.10000,  -0.10000,   0.10000  )

     Band symmetry, C_3v (3m)   point group:

     e(  1 -  1) =    -48.39238  eV     1   --> A_1  L_1       
     e(  2 -  2) =    -20.32284  eV     1   --> A_1  L_1       
     e(  3 -  4) =    -20.32123  eV     2   --> E    L_3       
     e(  5 -  5) =     -9.31603  eV     1   --> A_1  L_1       
     e(  6 -  6) =      1.51738  eV     1   --> A_1  L_1       
     e(  7 -  8) =      1.80689  eV     2   --> E    L_3       
     e(  9 -  9) =      6.31756  eV     1   --> A_1  L_1       
     e( 10 - 10) =     10.51433  eV     1   --> A_1  L_1       
     e( 11 - 12) =     10.96274  eV     2   --> E    L_3       
     e( 13 - 14) =     12.63600  eV     2   --> E    L_3       
     e( 15 - 15) =     15.00617  eV     1   --> A_1  L_1       

 **************************************************************************

 **************************************************************************

                    xk=(  -0.08750,  -0.08750,   0.08750  )

     Band symmetry, C_3v (3m)   point group:

     e(  1 -  1) =    -48.39239  eV     1   --> A_1  L_1       
     e(  2 -  2) =    -20.32244  eV     1   --> A_1  L_1       
     e(  3 -  4) =    -20.32120  eV     2   --> E    L_3       
     e(  5 -  5) =     -9.32532  eV     1   --> A_1  L_1       
     e(  6 -  6) =      1.58683  eV     1   --> A_1  L_1       
     e(  7 -  8) =      1.81420  eV     2   --> E    L_3       
     e(  9 -  9) =      6.23969  eV     1   --> A_1  L_1       
     e( 10 - 10) =     10.57563  eV     1   --> A_1  L_1       
     e( 11 - 12) =     10.93537  eV     2   --> E    L_3       
     e( 13 - 14) =     12.67267  eV     2   --> E    L_3       
     e( 15 - 15) =     14.88334  eV     1   --> A_1  L_1       

 **************************************************************************

 **************************************************************************

                    xk=(  -0.07500,  -0.07500,   0.07500  )

     Band symmetry, C_3v (3m)   point group:

     e(  1 -  1) =    -48.39240  eV     1   --> A_1  L_1       
     e(  2 -  2) =    -20.32208  eV     1   --> A_1  L_1       
     e(  3 -  4) =    -20.32117  eV     2   --> E    L_3       
     e(  5 -  5) =     -9.33347  eV     1   --> A_1  L_1       
     e(  6 -  6) =      1.64971  eV     1   --> A_1  L_1       
     e(  7 -  8) =      1.82067  eV     2   --> E    L_3       
     e(  9 -  9) =      6.16894  eV     1   --> A_1  L_1       
     e( 10 - 10) =     10.63458  eV     1   --> A_1  L_1       
     e( 11 - 12) =     10.91012  eV     2   --> E    L_3       
     e( 13 - 14) =     12.70883  eV     2   --> E    L_3       
     e( 15 - 15) =     14.76494  eV     1   --> A_1  L_1       

 **************************************************************************

 **************************************************************************

                    xk=(  -0.06250,  -0.06250,   0.06250  )

     Band symmetry, C_3v (3m)   point group:

     e(  1 -  1) =    -48.39241  eV     1   --> A_1  L_1       
     e(  2 -  2) =    -20.32178  eV     1   --> A_1  L_1       
     e(  3 -  4) =    -20.32114  eV     2   --> E    L_3       
     e(  5 -  5) =     -9.34043  eV     1   --> A_1  L_1       
     e(  6 -  6) =      1.70507  eV     1   --> A_1  L_1       
     e(  7 -  8) =      1.82623  eV     2   --> E    L_3       
     e(  9 -  9) =      6.10653  eV     1   --> A_1  L_1       
     e( 10 - 10) =     10.68927  eV     1   --> A_1  L_1       
     e( 11 - 12) =     10.88770  eV     2   --> E    L_3       
     e( 13 - 14) =     12.74281  eV     2   --> E    L_3       
     e( 15 - 15) =     14.65647  eV     1   --> A_1  L_1       

 **************************************************************************

 **************************************************************************

                    xk=(  -0.05000,  -0.05000,   0.05000  )

     Band symmetry, C_3v (3m)   point group:

     e(  1 -  1) =    -48.39241  eV     1   --> A_1  L_1       
     e(  2 -  2) =    -20.32153  eV     1   --> A_1  L_1       
     e(  3 -  4) =    -20.32112  eV     2   --> E    L_3       
     e(  5 -  5) =     -9.34617  eV     1   --> A_1  L_1       
     e(  6 -  6) =      1.75195  eV     1   --> A_1  L_1       
     e(  7 -  8) =      1.83083  eV     2   --> E    L_3       
     e(  9 -  9) =      6.05363  eV     1   --> A_1  L_1       
     e( 10 - 10) =     10.73772  eV     1   --> A_1  L_1       
     e( 11 - 12) =     10.86867  eV     2   --> E    L_3       
     e( 13 - 14) =     12.77306  eV     2   --> E    L_3       
     e( 15 - 15) =     14.56210  eV     1   --> A_1  L_1       

 **************************************************************************

 **************************************************************************

                    xk=(  -0.03750,  -0.03750,   0.03750  )

     Band symmetry, C_3v (3m)   point group:

     e(  1 -  1) =    -48.39242  eV     1   --> A_1  L_1       
     e(  2 -  2) =    -20.32133  eV     1   --> A_1  L_1       
     e(  3 -  4) =    -20.32110  eV     2   --> E    L_3       
     e(  5 -  5) =     -9.35066  eV     1   --> A_1  L_1       
     e(  6 -  6) =      1.78946  eV     1   --> A_1  L_1       
     e(  7 -  8) =      1.83445  eV     2   --> E    L_3       
     e(  9 -  9) =      6.01126  eV     1   --> A_1  L_1       
     e( 10 - 10) =     10.77796  eV     1   --> A_1  L_1       
     e( 11 - 12) =     10.85346  eV     2   --> E    L_3       
     e( 13 - 14) =     12.79818  eV     2   --> E    L_3       
     e( 15 - 15) =     14.48512  eV     1   --> A_1  L_1       

 **************************************************************************

 **************************************************************************

                    xk=(  -0.02500,  -0.02500,   0.02500  )

     Band symmetry, C_3v (3m)   point group:

     e(  1 -  1) =    -48.39242  eV     1   --> A_1  L_1       
     e(  2 -  2) =    -20.32119  eV     1   --> A_1  L_1       
     e(  3 -  4) =    -20.32109  eV     2   --> E    L_3       
     e(  5 -  5) =     -9.35388  eV     1   --> A_1  L_1       
     e(  6 -  6) =      1.81686  eV     1   --> A_1  L_1       
     e(  7 -  8) =      1.83706  eV     2   --> E    L_3       
     e(  9 -  9) =      5.98032  eV     1   --> A_1  L_1       
     e( 10 - 10) =     10.80822  eV     1   --> A_1  L_1       
     e( 11 - 12) =     10.84239  eV     2   --> E    L_3       
     e( 13 - 14) =     12.81703  eV     2   --> E    L_3       
     e( 15 - 15) =     14.42817  eV     1   --> A_1  L_1       

 **************************************************************************

 **************************************************************************

                    xk=(  -0.01250,  -0.01250,   0.01250  )

     Band symmetry, C_3v (3m)   point group:

     e(  1 -  1) =    -48.39243  eV     1   --> A_1  L_1       
     e(  2 -  4) =    -20.32111  eV     3   --> A_1  L_1       
     e(  2 -  4) =    -20.32111  eV     3   --> E    L_3       
     e(  5 -  5) =     -9.35582  eV     1   --> A_1  L_1       
     e(  6 -  6) =      1.83356  eV     1   --> A_1  L_1       
     e(  7 -  8) =      1.83864  eV     2   --> E    L_3       
     e(  9 -  9) =      5.96147  eV     1   --> A_1  L_1       
     e( 10 - 10) =     10.82702  eV     1   --> A_1  L_1       
     e( 11 - 12) =     10.83566  eV     2   --> E    L_3       
     e( 13 - 14) =     12.82871  eV     2   --> E    L_3       
     e( 15 - 15) =     14.39317  eV     1   --> A_1  L_1       

 **************************************************************************

 **************************************************************************

                    xk=(   0.00000,   0.00000,   0.00000  )

     point group O_h (m-3m) 
     there are 10 classes
     the character table:

       E     8C3   3C2   6C4   6C2'  i     8S6   3s_h  6S4   6s_d 
A_1g   1.00  1.00  1.00  1.00  1.00  1.00  1.00  1.00  1.00  1.00
A_2g   1.00  1.00  1.00 -1.00 -1.00  1.00  1.00  1.00 -1.00 -1.00
E_g    2.00 -1.00  2.00  0.00  0.00  2.00 -1.00  2.00  0.00  0.00
T_1g   3.00  0.00 -1.00  1.00 -1.00  3.00  0.00 -1.00  1.00 -1.00
T_2g   3.00  0.00 -1.00 -1.00  1.00  3.00  0.00 -1.00 -1.00  1.00
A_1u   1.00  1.00  1.00  1.00  1.00 -1.00 -1.00 -1.00 -1.00 -1.00
A_2u   1.00  1.00  1.00 -1.00 -1.00 -1.00 -1.00 -1.00  1.00  1.00
E_u    2.00 -1.00  2.00  0.00  0.00 -2.00  1.00 -2.00  0.00  0.00
T_1u   3.00  0.00 -1.00  1.00 -1.00 -3.00  0.00  1.00 -1.00  1.00
T_2u   3.00  0.00 -1.00 -1.00  1.00 -3.00  0.00  1.00  1.00 -1.00

     the symmetry operations in each class and the name of the first element:

     E        1
                                                                 
     8C3     17   19   20   18   24   21   22   23
                                                                 
     3C2      2    4    3
                                                                 
     6C4      7    8   15   16   12   11
                                                                 
     6C2'     5    6   14   13   10    9
                                                                 
     i       25
                                                                 
     8S6     41   43   44   42   48   45   46   47
                                                                 
     3s_h    26   28   27
                                                                 
     6S4     31   32   39   40   36   35
                                                                 
     6s_d    29   30   38   37   34   33
                                                                 

     Band symmetry, O_h (m-3m)  point group:

     e(  1 -  1) =    -48.39243  eV     1   --> A_1g G_1   G_1+
     e(  2 -  4) =    -20.32108  eV     3   --> T_1u G_15  G_4-
     e(  5 -  5) =     -9.35647  eV     1   --> A_1g G_1   G_1+
     e(  6 -  8) =      1.83916  eV     3   --> T_1u G_15  G_4-
     e(  9 -  9) =      5.95513  eV     1   --> A_1g G_1   G_1+
     e( 10 - 12) =     10.83340  eV     3   --> T_2g G_25' G_5+
     e( 13 - 14) =     12.83267  eV     2   --> E_g  G_12  G_3+
     e( 15 - 15) =     14.38137  eV     1   --> A_2u G_2'  G_2-

 **************************************************************************

     BANDS        :     25.46s CPU     25.94s WALL


   This run was terminated on:  23:45:19  19Dec2025            

=------------------------------------------------------------------------------=
   JOB DONE.
=------------------------------------------------------------------------------=
