
     Program PWSCF v.7.5 starts on 19Dec2025 at 23: 9:18 

     This program is part of the open-source Quantum ESPRESSO suite
     for quantum simulation of materials; please cite
         "P. Giannozzi et al., J. Phys.:Condens. Matter 21 395502 (2009);
         "P. Giannozzi et al., J. Phys.:Condens. Matter 29 465901 (2017);
         "P. Giannozzi et al., J. Chem. Phys. 152 154105 (2020);
          URL http://www.quantum-espresso.org", 
     in publications or presentations arising from this work. More details at
     http://www.quantum-espresso.org/quote

     Serial version
     8344 MiB available memory on the printing compute node when the environment starts

     Waiting for input...
     Reading input from standard input

     Current dimensions of program PWSCF are:
     Max number of different atomic species (ntypx) = 10
     Max number of k-points (npk) =  40000
     Max angular momentum in pseudopotentials (lmaxx) =  4

     Atomic positions and unit cell read from directory:
     ./tmp/NaS.save/



     G-vector sticks info
     --------------------
     sticks:   dense  smooth     PW     G-vecs:    dense   smooth      PW
     Sum        1003    1003    301                20875    20875    3479

     Using Slab Decomposition



     bravais-lattice index     =            2
     lattice parameter (alat)  =      11.0150  a.u.
     unit-cell volume          =     334.1131 (a.u.)^3
     number of atoms/cell      =            2
     number of atomic types    =            2
     number of electrons       =        15.00
     number of Kohn-Sham states=           12
     kinetic-energy cutoff     =      60.0000  Ry
     charge density cutoff     =     240.0000  Ry
     Exchange-correlation= PBE
                           (   1   4   3   4   0   0   0)

     celldm(1)=  11.015000  celldm(2)=   0.000000  celldm(3)=   0.000000
     celldm(4)=   0.000000  celldm(5)=   0.000000  celldm(6)=   0.000000

     crystal axes: (cart. coord. in units of alat)
               a(1) = (  -0.500000   0.000000   0.500000 )  
               a(2) = (   0.000000   0.500000   0.500000 )  
               a(3) = (  -0.500000   0.500000   0.000000 )  

     reciprocal axes: (cart. coord. in units 2 pi/alat)
               b(1) = ( -1.000000 -1.000000  1.000000 )  
               b(2) = (  1.000000  1.000000  1.000000 )  
               b(3) = ( -1.000000  1.000000 -1.000000 )  


     PseudoPot. # 1 for Na read from file:
     ./PSEUDO/Na_ONCV_PBE_sr.upf
     MD5 check sum: 5b8f2843c319a24323033026cd530bca
     Pseudo is Norm-conserving, Zval =  9.0
     Generated using ONCVPSP code by D. R. Hamann
     Using radial grid of 1992 points,  4 beta functions with: 
                l(1) =   0
                l(2) =   0
                l(3) =   1
                l(4) =   1

     PseudoPot. # 2 for S  read from file:
     ./PSEUDO/S_ONCV_PBE_sr.upf
     MD5 check sum: 0a7b1e3b8ed912888c590f2dcdc25257
     Pseudo is Norm-conserving + core correction, Zval =  6.0
     Generated using ONCVPSP code by D. R. Hamann
     Using radial grid of 1146 points,  6 beta functions with: 
                l(1) =   0
                l(2) =   0
                l(3) =   1
                l(4) =   1
                l(5) =   2
                l(6) =   2

     atomic species   valence    mass     pseudopotential
     Na                9.00    22.99000     Na( 1.00)
     S                 6.00    32.06500     S ( 1.00)

     48 Sym. Ops., with inversion, found



   Cartesian axes

     site n.     atom                  positions (alat units)
         1        Na     tau(   1) = (   0.0000000   0.0000000   0.0000000  )
         2        S      tau(   2) = (  -0.5000000   0.5000000   0.5000000  )

     number of k points=   145 (tetrahedron method)

     Number of k-points >= 100: set verbosity='high' to print them.

     Dense  grid:    20875 G-vectors     FFT dimensions: (  40,  40,  40)

     Estimated max dynamical RAM per process >      13.77 MB

     The potential is recalculated from file :
     ./tmp/NaS.save/charge-density

     Starting wfcs are    9 randomized atomic wfcs +    3 random wfcs

     Band Structure Calculation
     Davidson diagonalization with overlap

     ethr =  6.67E-09,  avg # of iterations = 23.2

     total cpu time spent up to now is       29.6 secs

     End of band structure calculation

     Number of k-points >= 100: set verbosity='high' to print the bands.

     the Fermi energy is     1.4624 ev
     (compare with:     1.4898 eV, computed in scf)

     Writing all to output data dir ./tmp/NaS.save/ :
     XML data file, pseudopotentials, collected wavefunctions

     init_run     :      0.28s CPU      0.30s WALL (       1 calls)
     electrons    :     27.43s CPU     28.64s WALL (       1 calls)

     Called by init_run:
     wfcinit      :      0.00s CPU      0.00s WALL (       1 calls)
     potinit      :      0.03s CPU      0.05s WALL (       1 calls)
     hinit0       :      0.17s CPU      0.17s WALL (       1 calls)

     Called by electrons:
     c_bands      :     27.17s CPU     28.37s WALL (       1 calls)
     v_of_rho     :      0.03s CPU      0.05s WALL (       1 calls)

     Called by c_bands:
     init_us_2    :      0.04s CPU      0.07s WALL (     145 calls)
     cegterg      :     25.30s CPU     26.32s WALL (     237 calls)

     Called by *egterg:
     cdiaghg      :      0.34s CPU      0.36s WALL (    3506 calls)
     h_psi        :     20.70s CPU     21.65s WALL (    3743 calls)
     g_psi        :      0.15s CPU      0.16s WALL (    3361 calls)

     Called by h_psi:
     h_psi:calbec :      1.45s CPU      1.50s WALL (    3743 calls)
     vloc_psi     :     17.76s CPU     18.59s WALL (    3743 calls)
                                        0.00s GPU  (    3743 calls)
     add_vuspsi   :      1.33s CPU      1.39s WALL (    3743 calls)

     General routines
     calbec       :      1.41s CPU      1.49s WALL (    3743 calls)
     fft          :      0.01s CPU      0.01s WALL (      11 calls)
     fftw         :     15.95s CPU     16.73s WALL (   49078 calls)
     davcio       :      0.02s CPU      0.05s WALL (     290 calls)


     PWSCF        :     28.40s CPU     29.70s WALL


   This run was terminated on:  23: 9:48  19Dec2025            

=------------------------------------------------------------------------------=
   JOB DONE.
=------------------------------------------------------------------------------=
