
     Program PWSCF v.7.5 starts on  7Jan2026 at 19: 1:34 

     This program is part of the open-source Quantum ESPRESSO suite
     for quantum simulation of materials; please cite
         "P. Giannozzi et al., J. Phys.:Condens. Matter 21 395502 (2009);
         "P. Giannozzi et al., J. Phys.:Condens. Matter 29 465901 (2017);
         "P. Giannozzi et al., J. Chem. Phys. 152 154105 (2020);
          URL http://www.quantum-espresso.org", 
     in publications or presentations arising from this work. More details at
     http://www.quantum-espresso.org/quote

     Serial version
     451 MiB available memory on the printing compute node when the environment starts

     Waiting for input...
     Reading input from standard input

     Current dimensions of program PWSCF are:
     Max number of different atomic species (ntypx) = 10
     Max number of k-points (npk) =  40000
     Max angular momentum in pseudopotentials (lmaxx) =  4


     G-vector sticks info
     --------------------
     sticks:   dense  smooth     PW     G-vecs:    dense   smooth      PW
     Sum         681     681    221                13517    13517    2373

     Using Slab Decomposition



     bravais-lattice index     =            1
     lattice parameter (alat)  =       6.0000  a.u.
     unit-cell volume          =     216.0000 (a.u.)^3
     number of atoms/cell      =            2
     number of atomic types    =            2
     number of electrons       =        22.00
     number of Kohn-Sham states=           15
     kinetic-energy cutoff     =      60.0000  Ry
     charge density cutoff     =     240.0000  Ry
     scf convergence threshold =      1.0E-06
     mixing beta               =       0.7000
     number of iterations used =            8  plain     mixing
     Exchange-correlation= PBE
                           (   1   4   3   4   0   0   0)

     celldm(1)=   6.000000  celldm(2)=   0.000000  celldm(3)=   0.000000
     celldm(4)=   0.000000  celldm(5)=   0.000000  celldm(6)=   0.000000

     crystal axes: (cart. coord. in units of alat)
               a(1) = (   1.000000   0.000000   0.000000 )  
               a(2) = (   0.000000   1.000000   0.000000 )  
               a(3) = (   0.000000   0.000000   1.000000 )  

     reciprocal axes: (cart. coord. in units 2 pi/alat)
               b(1) = (  1.000000  0.000000  0.000000 )  
               b(2) = (  0.000000  1.000000  0.000000 )  
               b(3) = (  0.000000  0.000000  1.000000 )  


     PseudoPot. # 1 for Si read from file:
     ./PSEUDO/Si.upf
     MD5 check sum: 02fab3f35e82123ef5bf1cb05d5b1a5e
     Pseudo is Norm-conserving + core correction, Zval =  4.0
     Generated using ONCVPSP code by D. R. Hamann
     Using radial grid of 1510 points,  6 beta functions with: 
                l(1) =   0
                l(2) =   0
                l(3) =   1
                l(4) =   1
                l(5) =   2
                l(6) =   2

     PseudoPot. # 2 for Ni read from file:
     ./PSEUDO/Ni.upf
     MD5 check sum: 2b0a79d100e227970886d6963e34175b
     Pseudo is Norm-conserving + core correction, Zval = 18.0
     Generated using ONCVPSP code by D. R. Hamann
     Using radial grid of 1372 points,  6 beta functions with: 
                l(1) =   0
                l(2) =   0
                l(3) =   1
                l(4) =   1
                l(5) =   2
                l(6) =   2

     atomic species   valence    mass     pseudopotential
     Si                4.00    28.08550     Si( 1.00)
     Ni               18.00    58.69340     Ni( 1.00)

     48 Sym. Ops., with inversion, found



   Cartesian axes

     site n.     atom                  positions (alat units)
         1        Si     tau(   1) = (   0.0000000   0.0000000   0.0000000  )
         2        Ni     tau(   2) = (   0.5000000   0.5000000   0.5000000  )

     number of k points=    35  Methfessel-Paxton smearing, width (Ry)=  0.0400
                       cart. coord. in units 2pi/alat
        k(    1) = (   0.0000000   0.0000000   0.0000000), wk =   0.0039062
        k(    2) = (   0.0000000   0.0000000   0.1250000), wk =   0.0234375
        k(    3) = (   0.0000000   0.0000000   0.2500000), wk =   0.0234375
        k(    4) = (   0.0000000   0.0000000   0.3750000), wk =   0.0234375
        k(    5) = (   0.0000000   0.0000000  -0.5000000), wk =   0.0117188
        k(    6) = (   0.0000000   0.1250000   0.1250000), wk =   0.0468750
        k(    7) = (   0.0000000   0.1250000   0.2500000), wk =   0.0937500
        k(    8) = (   0.0000000   0.1250000   0.3750000), wk =   0.0937500
        k(    9) = (   0.0000000   0.1250000  -0.5000000), wk =   0.0468750
        k(   10) = (   0.0000000   0.2500000   0.2500000), wk =   0.0468750
        k(   11) = (   0.0000000   0.2500000   0.3750000), wk =   0.0937500
        k(   12) = (   0.0000000   0.2500000  -0.5000000), wk =   0.0468750
        k(   13) = (   0.0000000   0.3750000   0.3750000), wk =   0.0468750
        k(   14) = (   0.0000000   0.3750000  -0.5000000), wk =   0.0468750
        k(   15) = (   0.0000000  -0.5000000  -0.5000000), wk =   0.0117188
        k(   16) = (   0.1250000   0.1250000   0.1250000), wk =   0.0312500
        k(   17) = (   0.1250000   0.1250000   0.2500000), wk =   0.0937500
        k(   18) = (   0.1250000   0.1250000   0.3750000), wk =   0.0937500
        k(   19) = (   0.1250000   0.1250000  -0.5000000), wk =   0.0468750
        k(   20) = (   0.1250000   0.2500000   0.2500000), wk =   0.0937500
        k(   21) = (   0.1250000   0.2500000   0.3750000), wk =   0.1875000
        k(   22) = (   0.1250000   0.2500000  -0.5000000), wk =   0.0937500
        k(   23) = (   0.1250000   0.3750000   0.3750000), wk =   0.0937500
        k(   24) = (   0.1250000   0.3750000  -0.5000000), wk =   0.0937500
        k(   25) = (   0.1250000  -0.5000000  -0.5000000), wk =   0.0234375
        k(   26) = (   0.2500000   0.2500000   0.2500000), wk =   0.0312500
        k(   27) = (   0.2500000   0.2500000   0.3750000), wk =   0.0937500
        k(   28) = (   0.2500000   0.2500000  -0.5000000), wk =   0.0468750
        k(   29) = (   0.2500000   0.3750000   0.3750000), wk =   0.0937500
        k(   30) = (   0.2500000   0.3750000  -0.5000000), wk =   0.0937500
        k(   31) = (   0.2500000  -0.5000000  -0.5000000), wk =   0.0234375
        k(   32) = (   0.3750000   0.3750000   0.3750000), wk =   0.0312500
        k(   33) = (   0.3750000   0.3750000  -0.5000000), wk =   0.0468750
        k(   34) = (   0.3750000  -0.5000000  -0.5000000), wk =   0.0234375
        k(   35) = (  -0.5000000  -0.5000000  -0.5000000), wk =   0.0039062

     Dense  grid:    13517 G-vectors     FFT dimensions: (  30,  30,  30)

     Estimated max dynamical RAM per process >      26.87 MB

     Check: negative core charge=   -0.000003

     Initial potential from superposition of free atoms

     starting charge      21.9992, renormalised to      22.0000
     Starting wfcs are   14 randomized atomic wfcs +    1 random wfcs

     total cpu time spent up to now is        0.5 secs

     Self-consistent Calculation

     iteration #  1     ecut=    60.00 Ry     beta= 0.70
     Davidson diagonalization with overlap
     ethr =  1.00E-02,  avg # of iterations =  4.0

     total cpu time spent up to now is        1.5 secs

     total energy              =    -343.40967499 Ry
     estimated scf accuracy    <       0.35486902 Ry

     iteration #  2     ecut=    60.00 Ry     beta= 0.70
     Davidson diagonalization with overlap
     ethr =  1.61E-03,  avg # of iterations =  3.3

     total cpu time spent up to now is        2.5 secs

     total energy              =    -342.71034682 Ry
     estimated scf accuracy    <       9.09244823 Ry

     iteration #  3     ecut=    60.00 Ry     beta= 0.70
     Davidson diagonalization with overlap
     ethr =  1.61E-03,  avg # of iterations =  3.1

     total cpu time spent up to now is        3.5 secs

     total energy              =    -343.63052794 Ry
     estimated scf accuracy    <       0.04475204 Ry

     iteration #  4     ecut=    60.00 Ry     beta= 0.70
     Davidson diagonalization with overlap
     ethr =  2.03E-04,  avg # of iterations =  1.1

     total cpu time spent up to now is        4.2 secs

     total energy              =    -343.63338245 Ry
     estimated scf accuracy    <       0.00278309 Ry

     iteration #  5     ecut=    60.00 Ry     beta= 0.70
     Davidson diagonalization with overlap
     ethr =  1.27E-05,  avg # of iterations =  2.7

     total cpu time spent up to now is        5.0 secs

     total energy              =    -343.63384087 Ry
     estimated scf accuracy    <       0.00016598 Ry

     iteration #  6     ecut=    60.00 Ry     beta= 0.70
     Davidson diagonalization with overlap
     ethr =  7.54E-07,  avg # of iterations =  2.4

     total cpu time spent up to now is        5.8 secs

     total energy              =    -343.63384265 Ry
     estimated scf accuracy    <       0.00005293 Ry

     iteration #  7     ecut=    60.00 Ry     beta= 0.70
     Davidson diagonalization with overlap
     ethr =  2.41E-07,  avg # of iterations =  1.4

     total cpu time spent up to now is        6.5 secs

     End of self-consistent calculation

          k = 0.0000 0.0000 0.0000 (  1743 PWs)   bands (ev):

   -93.6345 -53.6337 -53.6337 -53.6337  -0.5108   8.1376   8.1376   9.1849
     9.1849   9.1849  12.6695  12.6695  12.6695  16.3672  17.1168

          k = 0.0000 0.0000 0.1250 (  1719 PWs)   bands (ev):

   -93.6311 -53.6208 -53.6208 -53.6025  -0.2923   8.0704   8.1968   9.1107
     9.1107   9.2242  11.2393  12.9851  12.9851  16.7626  17.1696

          k = 0.0000 0.0000 0.2500 (  1707 PWs)   bands (ev):

   -93.6295 -53.6085 -53.6085 -53.6040   0.3480   7.1341   8.3416   8.8888
     8.8888   9.2569   9.9085  13.8150  13.8150  17.2405  17.3058

          k = 0.0000 0.0000 0.3750 (  1703 PWs)   bands (ev):

   -93.6291 -53.6095 -53.6095 -53.5988   1.3302   5.3849   8.4889   8.6935
     8.6935   9.2271   9.7269  14.9175  14.9175  17.4609  18.0096

          k = 0.0000 0.0000-0.5000 (  1686 PWs)   bands (ev):

   -93.6268 -53.6028 -53.6028 -53.5753   2.0896   4.2971   8.5534   8.6518
     8.6518   9.2335   9.7904  15.6571  15.6571  17.5334  18.5487

          k = 0.0000 0.1250 0.1250 (  1701 PWs)   bands (ev):

   -93.6287 -53.6134 -53.5988 -53.5921  -0.0757   8.1217   8.1627   8.9792
     9.0878   9.1900  11.4742  11.5849  13.2745  17.0806  18.8572

          k = 0.0000 0.1250 0.2500 (  1703 PWs)   bands (ev):

   -93.6290 -53.6115 -53.6048 -53.5977   0.5581   7.2620   8.2732   8.7909
     8.8939   9.1679  10.0867  12.2357  14.0352  17.3811  19.2775

          k = 0.0000 0.1250 0.3750 (  1705 PWs)   bands (ev):

   -93.6293 -53.6140 -53.6080 -53.6009   1.5260   5.5735   8.3929   8.6591
     8.7183   9.1952   9.7588  13.1916  15.0421  17.2946  18.1776

          k = 0.0000 0.1250-0.5000 (  1690 PWs)   bands (ev):

   -93.6273 -53.6078 -53.5932 -53.5892   2.2630   4.5201   8.5133   8.5734
     8.6877   9.2147   9.7733  13.8703  15.6877  16.4190  18.2324

          k = 0.0000 0.2500 0.2500 (  1708 PWs)   bands (ev):

   -93.6296 -53.6131 -53.6089 -53.6061   1.1701   7.4108   7.7282   8.7051
     8.8887   9.0639  10.3163  10.6873  14.6202  16.8651  18.1915

          k = 0.0000 0.2500 0.3750 (  1695 PWs)   bands (ev):

   -93.6279 -53.6064 -53.6009 -53.5957   2.0895   6.0996   7.9748   8.6757
     8.8112   9.0703   9.8303  11.2595  14.9322  15.3639  18.6468

          k = 0.0000 0.2500-0.5000 (  1690 PWs)   bands (ev):

   -93.6274 -53.6046 -53.5967 -53.5952   2.7549   5.1722   8.1227   8.6216
     8.7767   9.1063   9.7551  11.8193  13.8611  15.7729  19.0249

          k = 0.0000 0.3750 0.3750 (  1676 PWs)   bands (ev):

   -93.6255 -53.5935 -53.5880 -53.5847   2.9021   6.6209   7.2273   8.6378
     8.8992   8.9747   9.8157  10.5237  12.9256  15.7177  19.5307

          k = 0.0000 0.3750-0.5000 (  1682 PWs)   bands (ev):

   -93.6265 -53.6026 -53.6012 -53.5829   3.4344   6.1704   7.4520   8.4759
     8.8837   8.9753   9.6998  10.5931  11.9784  15.8787  20.1742

          k = 0.0000-0.5000-0.5000 (  1692 PWs)   bands (ev):

   -93.6279 -53.6090 -53.6090 -53.5935   3.8346   6.9925   6.9925   8.0067
     8.9020   8.9020   9.6591  10.2045  11.2927  15.9290  21.3102

          k = 0.1250 0.1250 0.1250 (  1704 PWs)   bands (ev):

   -93.6292 -53.6068 -53.6068 -53.6013   0.1389   8.1400   8.1401   8.8350
     9.0699   9.0699  11.6214  11.8616  11.8616  18.8628  19.1756

          k = 0.1250 0.1250 0.2500 (  1701 PWs)   bands (ev):

   -93.6287 -53.6048 -53.6043 -53.6010   0.7665   7.3797   8.2344   8.7242
     8.8480   9.1056  10.2525  12.2978  12.5901  18.8874  19.3684

          k = 0.1250 0.1250 0.3750 (  1701 PWs)   bands (ev):

   -93.6288 -53.6200 -53.6064 -53.5887   1.7213   5.7593   8.2972   8.6581
     8.7896   9.1288   9.8054  13.1652  13.5293  17.3655  18.0666

          k = 0.1250 0.1250-0.5000 (  1686 PWs)   bands (ev):

   -93.6267 -53.6041 -53.5916 -53.5859   2.4385   4.7382   8.3875   8.5987
     8.7788   9.1812   9.7753  13.7803  14.1646  16.3828  17.1082

          k = 0.1250 0.2500 0.2500 (  1700 PWs)   bands (ev):

   -93.6286 -53.6129 -53.6093 -53.5904   1.3734   7.5639   7.7306   8.6911
     8.8123   9.0034  10.5771  10.7510  13.0197  17.1374  19.6341

          k = 0.1250 0.2500 0.3750 (  1691 PWs)   bands (ev):

   -93.6274 -53.6102 -53.5989 -53.5876   2.2824   6.2704   7.9138   8.7218
     8.8394   9.0385   9.9175  11.3219  13.8016  15.1356  18.3548

          k = 0.1250 0.2500-0.5000 (  1694 PWs)   bands (ev):

   -93.6279 -53.6053 -53.6032 -53.5971   2.9352   5.3660   7.9926   8.6827
     8.9258   9.0286   9.7713  11.8240  14.1002  14.3110  17.5264

          k = 0.1250 0.3750 0.3750 (  1692 PWs)   bands (ev):

   -93.6276 -53.6083 -53.5994 -53.5968   3.0921   6.7698   7.1976   8.5917
     8.9535   9.0733   9.9097  10.4102  13.0745  14.3767  18.8085

          k = 0.1250 0.3750-0.5000 (  1690 PWs)   bands (ev):

   -93.6275 -53.6050 -53.6024 -53.5966   3.6254   6.2933   7.3871   8.5190
     9.0539   9.0680   9.7346  10.4957  12.1260  14.6817  18.5494

          k = 0.1250-0.5000-0.5000 (  1688 PWs)   bands (ev):

   -93.6273 -53.6026 -53.6026 -53.5972   4.0413   6.9599   6.9599   8.2161
     9.1328   9.1328   9.6504  10.0929  11.3450  14.8809  19.2428

          k = 0.2500 0.2500 0.2500 (  1713 PWs)   bands (ev):

   -93.6303 -53.6183 -53.6183 -53.6088   1.9626   7.7117   7.7117   8.3436
     8.8930   8.8930  10.7602  11.2291  11.2291  17.0074  18.2426

          k = 0.2500 0.2500 0.3750 (  1693 PWs)   bands (ev):

   -93.6277 -53.6087 -53.5997 -53.5963   2.8373   6.7023   7.7006   8.7113
     8.8760   9.0961  10.0933  11.1800  12.2049  15.4642  16.0797

          k = 0.2500 0.2500-0.5000 (  1690 PWs)   bands (ev):

   -93.6274 -53.6042 -53.6012 -53.5962   3.4503   5.8990   7.6998   8.8881
     8.9031   9.2250   9.8252  11.3344  12.9791  14.6902  14.9157

          k = 0.2500 0.3750 0.3750 (  1695 PWs)   bands (ev):

   -93.6279 -53.6075 -53.6029 -53.6019   3.6421   7.0878   7.1349   8.7153
     9.1351   9.2230  10.0195  10.3907  12.4254  13.7634  16.4284

          k = 0.2500 0.3750-0.5000 (  1706 PWs)   bands (ev):

   -93.6294 -53.6187 -53.6118 -53.6091   4.1791   6.5576   7.2361   8.7731
     9.2123   9.4663   9.8529  10.1645  12.6057  13.0972  15.7947

          k = 0.2500-0.5000-0.5000 (  1692 PWs)   bands (ev):

   -93.6275 -53.6073 -53.6006 -53.6006   4.6422   6.8880   6.8880   8.7705
     9.4905   9.6823   9.7892   9.7892  11.5356  13.3736  16.5430

          k = 0.3750 0.3750 0.3750 (  1694 PWs)   bands (ev):

   -93.6278 -53.6077 -53.6028 -53.6028   4.4486   7.0759   7.0759   9.2419
     9.3136   9.3267   9.3267  11.3409  11.3409  14.4440  14.7109

          k = 0.3750 0.3750-0.5000 (  1682 PWs)   bands (ev):

   -93.6261 -53.5973 -53.5967 -53.5917   5.0091   6.7662   7.0633   8.8860
     9.3750   9.4091  10.2017  10.5416  12.4767  13.1599  13.7933

          k = 0.3750-0.5000-0.5000 (  1688 PWs)   bands (ev):

   -93.6269 -53.6009 -53.6009 -53.5988   5.6138   6.8258   6.8258   8.3151
     9.4272   9.6865  10.8748  10.8748  11.9745  12.5477  14.2452

          k =-0.5000-0.5000-0.5000 (  1640 PWs)   bands (ev):

   -93.6202 -53.5616 -53.5616 -53.5616   6.8382   6.8382   6.8382   6.9864
     9.7732   9.7732  12.3898  12.3956  12.3956  12.3956  15.7264

     the Fermi energy is    10.3804 ev

!    total energy              =    -343.63384747 Ry
     estimated scf accuracy    <       0.00000039 Ry
     smearing contrib. (-TS)   =       0.00078370 Ry
     internal energy E=F+TS    =    -343.63463117 Ry

     The total energy is F=E-TS. E is the sum of the following terms:
     one-electron contribution =    -253.65983616 Ry
     hartree contribution      =     135.67862196 Ry
     xc contribution           =     -45.62676315 Ry
     ewald contribution        =    -180.02665382 Ry

     convergence has been achieved in   7 iterations

     Forces acting on atoms (cartesian axes, Ry/au):

     atom    1 type  1   force =     0.00000000    0.00000000    0.00000000
     atom    2 type  2   force =     0.00000000    0.00000000    0.00000000

     Total force =     0.000000     Total SCF correction =     0.000000


     Computing stress (Cartesian axis) and pressure

          total   stress  (Ry/bohr**3)                   (kbar)     P=    -1874.63
  -0.01274348   0.00000000   0.00000000        -1874.63        0.00        0.00
   0.00000000  -0.01274348   0.00000000            0.00    -1874.63        0.00
   0.00000000   0.00000000  -0.01274348            0.00        0.00    -1874.63


     Writing all to output data dir ./tmp/SiNi.save/ :
     XML data file, charge density, pseudopotentials, collected wavefunctions

     init_run     :      0.40s CPU      0.45s WALL (       1 calls)
     electrons    :      5.83s CPU      6.00s WALL (       1 calls)
     forces       :      0.13s CPU      0.14s WALL (       1 calls)
     stress       :      0.51s CPU      0.55s WALL (       1 calls)

     Called by init_run:
     wfcinit      :      0.26s CPU      0.30s WALL (       1 calls)
     potinit      :      0.04s CPU      0.04s WALL (       1 calls)
     hinit0       :      0.10s CPU      0.10s WALL (       1 calls)

     Called by electrons:
     c_bands      :      5.13s CPU      5.28s WALL (       7 calls)
     sum_band     :      0.66s CPU      0.67s WALL (       7 calls)
     v_of_rho     :      0.05s CPU      0.05s WALL (       8 calls)
     mix_rho      :      0.01s CPU      0.01s WALL (       7 calls)

     Called by c_bands:
     init_us_2    :      0.17s CPU      0.20s WALL (     595 calls)
     cegterg      :      4.85s CPU      4.98s WALL (     245 calls)

     Called by *egterg:
     cdiaghg      :      0.10s CPU      0.11s WALL (     874 calls)
     h_psi        :      3.78s CPU      3.92s WALL (     909 calls)
     g_psi        :      0.02s CPU      0.03s WALL (     629 calls)

     Called by h_psi:
     h_psi:calbec :      0.46s CPU      0.47s WALL (     909 calls)
     vloc_psi     :      2.85s CPU      2.97s WALL (     909 calls)
                                        0.00s GPU  (     909 calls)
     add_vuspsi   :      0.44s CPU      0.45s WALL (     909 calls)

     General routines
     calbec       :      0.88s CPU      0.90s WALL (    1504 calls)
     fft          :      0.02s CPU      0.02s WALL (     104 calls)
     ffts         :      0.00s CPU      0.00s WALL (       7 calls)
     fftw         :      2.95s CPU      3.18s WALL (   22267 calls)


     PWSCF        :      6.92s CPU      7.19s WALL


   This run was terminated on:  19: 1:41   7Jan2026            

=------------------------------------------------------------------------------=
   JOB DONE.
=------------------------------------------------------------------------------=
