
     Program PWSCF v.7.5 starts on  7Jan2026 at 19: 1:41 

     This program is part of the open-source Quantum ESPRESSO suite
     for quantum simulation of materials; please cite
         "P. Giannozzi et al., J. Phys.:Condens. Matter 21 395502 (2009);
         "P. Giannozzi et al., J. Phys.:Condens. Matter 29 465901 (2017);
         "P. Giannozzi et al., J. Chem. Phys. 152 154105 (2020);
          URL http://www.quantum-espresso.org", 
     in publications or presentations arising from this work. More details at
     http://www.quantum-espresso.org/quote

     Serial version
     457 MiB available memory on the printing compute node when the environment starts

     Waiting for input...
     Reading input from standard input

     Current dimensions of program PWSCF are:
     Max number of different atomic species (ntypx) = 10
     Max number of k-points (npk) =  40000
     Max angular momentum in pseudopotentials (lmaxx) =  4


     G-vector sticks info
     --------------------
     sticks:   dense  smooth     PW     G-vecs:    dense   smooth      PW
     Sum         917     917    277                20815    20815    3431

     Using Slab Decomposition



     bravais-lattice index     =            1
     lattice parameter (alat)  =       6.0000  a.u.
     unit-cell volume          =     216.0000 (a.u.)^3
     number of atoms/cell      =            2
     number of atomic types    =            2
     number of electrons       =        22.00
     number of Kohn-Sham states=           15
     kinetic-energy cutoff     =      80.0000  Ry
     charge density cutoff     =     320.0000  Ry
     scf convergence threshold =      1.0E-06
     mixing beta               =       0.7000
     number of iterations used =            8  plain     mixing
     Exchange-correlation= PBE
                           (   1   4   3   4   0   0   0)

     celldm(1)=   6.000000  celldm(2)=   0.000000  celldm(3)=   0.000000
     celldm(4)=   0.000000  celldm(5)=   0.000000  celldm(6)=   0.000000

     crystal axes: (cart. coord. in units of alat)
               a(1) = (   1.000000   0.000000   0.000000 )  
               a(2) = (   0.000000   1.000000   0.000000 )  
               a(3) = (   0.000000   0.000000   1.000000 )  

     reciprocal axes: (cart. coord. in units 2 pi/alat)
               b(1) = (  1.000000  0.000000  0.000000 )  
               b(2) = (  0.000000  1.000000  0.000000 )  
               b(3) = (  0.000000  0.000000  1.000000 )  


     PseudoPot. # 1 for Si read from file:
     ./PSEUDO/Si.upf
     MD5 check sum: 02fab3f35e82123ef5bf1cb05d5b1a5e
     Pseudo is Norm-conserving + core correction, Zval =  4.0
     Generated using ONCVPSP code by D. R. Hamann
     Using radial grid of 1510 points,  6 beta functions with: 
                l(1) =   0
                l(2) =   0
                l(3) =   1
                l(4) =   1
                l(5) =   2
                l(6) =   2

     PseudoPot. # 2 for Ni read from file:
     ./PSEUDO/Ni.upf
     MD5 check sum: 2b0a79d100e227970886d6963e34175b
     Pseudo is Norm-conserving + core correction, Zval = 18.0
     Generated using ONCVPSP code by D. R. Hamann
     Using radial grid of 1372 points,  6 beta functions with: 
                l(1) =   0
                l(2) =   0
                l(3) =   1
                l(4) =   1
                l(5) =   2
                l(6) =   2

     atomic species   valence    mass     pseudopotential
     Si                4.00    28.08550     Si( 1.00)
     Ni               18.00    58.69340     Ni( 1.00)

     48 Sym. Ops., with inversion, found



   Cartesian axes

     site n.     atom                  positions (alat units)
         1        Si     tau(   1) = (   0.0000000   0.0000000   0.0000000  )
         2        Ni     tau(   2) = (   0.5000000   0.5000000   0.5000000  )

     number of k points=    35  Methfessel-Paxton smearing, width (Ry)=  0.0400
                       cart. coord. in units 2pi/alat
        k(    1) = (   0.0000000   0.0000000   0.0000000), wk =   0.0039062
        k(    2) = (   0.0000000   0.0000000   0.1250000), wk =   0.0234375
        k(    3) = (   0.0000000   0.0000000   0.2500000), wk =   0.0234375
        k(    4) = (   0.0000000   0.0000000   0.3750000), wk =   0.0234375
        k(    5) = (   0.0000000   0.0000000  -0.5000000), wk =   0.0117188
        k(    6) = (   0.0000000   0.1250000   0.1250000), wk =   0.0468750
        k(    7) = (   0.0000000   0.1250000   0.2500000), wk =   0.0937500
        k(    8) = (   0.0000000   0.1250000   0.3750000), wk =   0.0937500
        k(    9) = (   0.0000000   0.1250000  -0.5000000), wk =   0.0468750
        k(   10) = (   0.0000000   0.2500000   0.2500000), wk =   0.0468750
        k(   11) = (   0.0000000   0.2500000   0.3750000), wk =   0.0937500
        k(   12) = (   0.0000000   0.2500000  -0.5000000), wk =   0.0468750
        k(   13) = (   0.0000000   0.3750000   0.3750000), wk =   0.0468750
        k(   14) = (   0.0000000   0.3750000  -0.5000000), wk =   0.0468750
        k(   15) = (   0.0000000  -0.5000000  -0.5000000), wk =   0.0117188
        k(   16) = (   0.1250000   0.1250000   0.1250000), wk =   0.0312500
        k(   17) = (   0.1250000   0.1250000   0.2500000), wk =   0.0937500
        k(   18) = (   0.1250000   0.1250000   0.3750000), wk =   0.0937500
        k(   19) = (   0.1250000   0.1250000  -0.5000000), wk =   0.0468750
        k(   20) = (   0.1250000   0.2500000   0.2500000), wk =   0.0937500
        k(   21) = (   0.1250000   0.2500000   0.3750000), wk =   0.1875000
        k(   22) = (   0.1250000   0.2500000  -0.5000000), wk =   0.0937500
        k(   23) = (   0.1250000   0.3750000   0.3750000), wk =   0.0937500
        k(   24) = (   0.1250000   0.3750000  -0.5000000), wk =   0.0937500
        k(   25) = (   0.1250000  -0.5000000  -0.5000000), wk =   0.0234375
        k(   26) = (   0.2500000   0.2500000   0.2500000), wk =   0.0312500
        k(   27) = (   0.2500000   0.2500000   0.3750000), wk =   0.0937500
        k(   28) = (   0.2500000   0.2500000  -0.5000000), wk =   0.0468750
        k(   29) = (   0.2500000   0.3750000   0.3750000), wk =   0.0937500
        k(   30) = (   0.2500000   0.3750000  -0.5000000), wk =   0.0937500
        k(   31) = (   0.2500000  -0.5000000  -0.5000000), wk =   0.0234375
        k(   32) = (   0.3750000   0.3750000   0.3750000), wk =   0.0312500
        k(   33) = (   0.3750000   0.3750000  -0.5000000), wk =   0.0468750
        k(   34) = (   0.3750000  -0.5000000  -0.5000000), wk =   0.0234375
        k(   35) = (  -0.5000000  -0.5000000  -0.5000000), wk =   0.0039062

     Dense  grid:    20815 G-vectors     FFT dimensions: (  36,  36,  36)

     Estimated max dynamical RAM per process >      40.74 MB

     Initial potential from superposition of free atoms

     starting charge      21.9992, renormalised to      22.0000
     Starting wfcs are   14 randomized atomic wfcs +    1 random wfcs

     total cpu time spent up to now is        0.6 secs

     Self-consistent Calculation

     iteration #  1     ecut=    80.00 Ry     beta= 0.70
     Davidson diagonalization with overlap
     ethr =  1.00E-02,  avg # of iterations =  3.4

     total cpu time spent up to now is        2.0 secs

     total energy              =    -343.57364401 Ry
     estimated scf accuracy    <       0.61219794 Ry

     iteration #  2     ecut=    80.00 Ry     beta= 0.70
     Davidson diagonalization with overlap
     ethr =  2.78E-03,  avg # of iterations =  3.8

     total cpu time spent up to now is        3.6 secs

     total energy              =    -342.41827055 Ry
     estimated scf accuracy    <      16.79392303 Ry

     iteration #  3     ecut=    80.00 Ry     beta= 0.70
     Davidson diagonalization with overlap
     ethr =  2.78E-03,  avg # of iterations =  3.5

     total cpu time spent up to now is        5.1 secs

     total energy              =    -344.00331525 Ry
     estimated scf accuracy    <       0.03525836 Ry

     iteration #  4     ecut=    80.00 Ry     beta= 0.70
     Davidson diagonalization with overlap
     ethr =  1.60E-04,  avg # of iterations =  2.1

     total cpu time spent up to now is        6.3 secs

     total energy              =    -343.99938050 Ry
     estimated scf accuracy    <       0.02619332 Ry

     iteration #  5     ecut=    80.00 Ry     beta= 0.70
     Davidson diagonalization with overlap
     ethr =  1.19E-04,  avg # of iterations =  1.3

     total cpu time spent up to now is        7.3 secs

     total energy              =    -344.00171143 Ry
     estimated scf accuracy    <       0.00031138 Ry

     iteration #  6     ecut=    80.00 Ry     beta= 0.70
     Davidson diagonalization with overlap
     ethr =  1.42E-06,  avg # of iterations =  3.3

     total cpu time spent up to now is        8.7 secs

     total energy              =    -344.00176783 Ry
     estimated scf accuracy    <       0.00018328 Ry

     iteration #  7     ecut=    80.00 Ry     beta= 0.70
     Davidson diagonalization with overlap
     ethr =  8.33E-07,  avg # of iterations =  1.0

     total cpu time spent up to now is        9.7 secs

     total energy              =    -344.00175350 Ry
     estimated scf accuracy    <       0.00007023 Ry

     iteration #  8     ecut=    80.00 Ry     beta= 0.70
     Davidson diagonalization with overlap
     ethr =  3.19E-07,  avg # of iterations =  2.0

     total cpu time spent up to now is       10.8 secs

     End of self-consistent calculation

          k = 0.0000 0.0000 0.0000 (  2553 PWs)   bands (ev):

   -92.4883 -52.8470 -52.8470 -52.8470  -0.5128   8.2681   8.2681   9.2773
     9.2773   9.2773  12.6673  12.6673  12.6673  16.3978  17.1112

          k = 0.0000 0.0000 0.1250 (  2589 PWs)   bands (ev):

   -92.4885 -52.8494 -52.8476 -52.8476  -0.2945   8.1270   8.3116   9.1589
     9.1589   9.2858  11.2493  12.9820  12.9820  16.7736  17.1568

          k = 0.0000 0.0000 0.2500 (  2609 PWs)   bands (ev):

   -92.4885 -52.8514 -52.8481 -52.8481   0.3459   7.1569   8.4197   8.9210
     8.9210   9.3068   9.9565  13.8051  13.8051  17.2490  17.2842

          k = 0.0000 0.0000 0.3750 (  2621 PWs)   bands (ev):

   -92.4886 -52.8541 -52.8482 -52.8482   1.3282   5.3876   8.5323   8.7242
     8.7242   9.3286   9.7751  14.8999  14.8999  17.4449  18.0146

          k = 0.0000 0.0000-0.5000 (  2594 PWs)   bands (ev):

   -92.4883 -52.8537 -52.8477 -52.8477   2.0868   4.2962   8.5805   8.6523
     8.6523   9.3385   9.8008  15.6242  15.6242  17.5252  18.5422

          k = 0.0000 0.1250 0.1250 (  2604 PWs)   bands (ev):

   -92.4886 -52.8498 -52.8488 -52.8479  -0.0780   8.1448   8.2345   9.0085
     9.1269   9.2276  11.4814  11.5786  13.2686  17.0740  18.8602

          k = 0.0000 0.1250 0.2500 (  2620 PWs)   bands (ev):

   -92.4886 -52.8518 -52.8491 -52.8485   0.5560   7.2801   8.3234   8.8186
     8.9385   9.2326  10.1135  12.2336  14.0267  17.3731  19.2656

          k = 0.0000 0.1250 0.3750 (  2625 PWs)   bands (ev):

   -92.4885 -52.8536 -52.8494 -52.8485   1.5242   5.5774   8.4608   8.6953
     8.7595   9.2605   9.8011  13.1871  15.0285  17.2945  18.1604

          k = 0.0000 0.1250-0.5000 (  2612 PWs)   bands (ev):

   -92.4884 -52.8539 -52.8491 -52.8483   2.2612   4.5204   8.5422   8.6145
     8.6918   9.2735   9.7958  13.8508  15.6598  16.4170  18.2254

          k = 0.0000 0.2500 0.2500 (  2624 PWs)   bands (ev):

   -92.4886 -52.8518 -52.8514 -52.8485   1.1684   7.4503   7.7448   8.7669
     8.9444   9.1074  10.3359  10.7189  14.6132  16.8630  18.1737

          k = 0.0000 0.2500 0.3750 (  2618 PWs)   bands (ev):

   -92.4884 -52.8534 -52.8512 -52.8485   2.0887   6.1064   7.9964   8.7238
     8.8444   9.1088   9.8520  11.2621  14.9274  15.3508  18.6350

          k = 0.0000 0.2500-0.5000 (  2610 PWs)   bands (ev):

   -92.4883 -52.8539 -52.8510 -52.8483   2.7566   5.1737   8.1655   8.6624
     8.7900   9.1266   9.7723  11.8311  13.8615  15.7568  19.0166

          k = 0.0000 0.3750 0.3750 (  2604 PWs)   bands (ev):

   -92.4882 -52.8530 -52.8526 -52.8483   2.9048   6.6324   7.2197   8.6585
     8.9146   8.9859   9.7925  10.5313  12.9200  15.7078  19.5157

          k = 0.0000 0.3750-0.5000 (  2616 PWs)   bands (ev):

   -92.4883 -52.8539 -52.8530 -52.8486   3.4413   6.1696   7.4643   8.5003
     8.8914   8.9891   9.7125  10.6269  11.9742  15.8739  20.1646

          k = 0.0000-0.5000-0.5000 (  2624 PWs)   bands (ev):

   -92.4883 -52.8540 -52.8540 -52.8488   3.8502   6.9856   6.9856   8.0428
     8.9345   8.9345   9.6657  10.2796  11.2998  15.9301  21.2984

          k = 0.1250 0.1250 0.1250 (  2614 PWs)   bands (ev):

   -92.4886 -52.8498 -52.8491 -52.8491   0.1367   8.1865   8.1865   8.8972
     9.1033   9.1033  11.6293  11.8638  11.8638  18.8837  19.1452

          k = 0.1250 0.1250 0.2500 (  2619 PWs)   bands (ev):

   -92.4886 -52.8517 -52.8495 -52.8489   0.7645   7.3992   8.2842   8.7804
     8.8716   9.1406  10.2751  12.3017  12.5850  18.8978  19.3524

          k = 0.1250 0.1250 0.3750 (  2626 PWs)   bands (ev):

   -92.4885 -52.8537 -52.8495 -52.8492   1.7194   5.7629   8.3668   8.7049
     8.8055   9.1820   9.8415  13.1540  13.5233  17.3682  18.0457

          k = 0.1250 0.1250-0.5000 (  2614 PWs)   bands (ev):

   -92.4884 -52.8538 -52.8493 -52.8491   2.4370   4.7383   8.3873   8.6600
     8.8004   9.1989   9.8007  13.7648  14.1260  16.3861  17.0886

          k = 0.1250 0.2500 0.2500 (  2624 PWs)   bands (ev):

   -92.4885 -52.8518 -52.8512 -52.8493   1.3718   7.6040   7.7529   8.7450
     8.8398   9.0381  10.5919  10.7610  13.0218  17.1329  19.6182

          k = 0.1250 0.2500 0.3750 (  2604 PWs)   bands (ev):

   -92.4883 -52.8529 -52.8510 -52.8488   2.2817   6.2758   7.9465   8.7502
     8.8844   9.0604   9.9353  11.3193  13.7932  15.1280  18.3385

          k = 0.1250 0.2500-0.5000 (  2608 PWs)   bands (ev):

   -92.4883 -52.8537 -52.8510 -52.8491   2.9370   5.3676   8.0267   8.7297
     8.9599   9.0570   9.7990  11.8274  14.0984  14.2928  17.5116

          k = 0.1250 0.3750 0.3750 (  2602 PWs)   bands (ev):

   -92.4882 -52.8529 -52.8528 -52.8488   3.0955   6.7890   7.1986   8.6369
     9.0039   9.0852   9.9132  10.4406  13.0776  14.3665  18.7984

          k = 0.1250 0.3750-0.5000 (  2606 PWs)   bands (ev):

   -92.4882 -52.8537 -52.8529 -52.8489   3.6325   6.2937   7.4038   8.5509
     9.0850   9.1005   9.7495  10.5236  12.1288  14.6730  18.5212

          k = 0.1250-0.5000-0.5000 (  2596 PWs)   bands (ev):

   -92.4880 -52.8534 -52.8534 -52.8487   4.0536   6.9587   6.9587   8.2501
     9.1607   9.1607   9.6694  10.1244  11.3543  14.8758  19.2058

          k = 0.2500 0.2500 0.2500 (  2605 PWs)   bands (ev):

   -92.4883 -52.8511 -52.8509 -52.8509   1.9623   7.7572   7.7572   8.3868
     8.9509   8.9509  10.7794  11.2527  11.2527  17.0204  18.2171

          k = 0.2500 0.2500 0.3750 (  2598 PWs)   bands (ev):

   -92.4881 -52.8528 -52.8507 -52.8505   2.8383   6.7098   7.7421   8.7362
     8.9244   9.1253  10.1015  11.1804  12.2029  15.4652  16.0582

          k = 0.2500 0.2500-0.5000 (  2614 PWs)   bands (ev):

   -92.4882 -52.8539 -52.8512 -52.8509   3.4537   5.9016   7.7309   8.9184
     8.9242   9.2761   9.8476  11.3341  12.9546  14.6879  14.8982

          k = 0.2500 0.3750 0.3750 (  2605 PWs)   bands (ev):

   -92.4881 -52.8529 -52.8528 -52.8506   3.6469   7.1147   7.1518   8.7432
     9.1824   9.2508  10.0431  10.3926  12.4227  13.7572  16.4219

          k = 0.2500 0.3750-0.5000 (  2600 PWs)   bands (ev):

   -92.4880 -52.8535 -52.8527 -52.8506   4.1881   6.5705   7.2745   8.8230
     9.2646   9.5274   9.8790  10.1771  12.6134  13.0937  15.7850

          k = 0.2500-0.5000-0.5000 (  2592 PWs)   bands (ev):

   -92.4879 -52.8530 -52.8530 -52.8508   4.6563   6.9032   6.9032   8.7988
     9.5245   9.6758   9.8171   9.8171  11.5452  13.3646  16.5106

          k = 0.3750 0.3750 0.3750 (  2605 PWs)   bands (ev):

   -92.4880 -52.8530 -52.8525 -52.8525   4.4565   7.1090   7.1090   9.2487
     9.3428   9.3428   9.3614  11.3410  11.3411  14.4505  14.6892

          k = 0.3750 0.3750-0.5000 (  2590 PWs)   bands (ev):

   -92.4878 -52.8530 -52.8527 -52.8520   5.0186   6.7886   7.0925   8.9026
     9.3692   9.4116  10.2056  10.5393  12.4555  13.1445  13.7883

          k = 0.3750-0.5000-0.5000 (  2592 PWs)   bands (ev):

   -92.4878 -52.8531 -52.8531 -52.8524   5.6305   6.8569   6.8569   8.3408
     9.4168   9.6815  10.8821  10.8821  11.9715  12.5397  14.2249

          k =-0.5000-0.5000-0.5000 (  2608 PWs)   bands (ev):

   -92.4879 -52.8535 -52.8535 -52.8535   6.8391   6.8391   6.8391   6.9907
     9.6835   9.6835  12.3237  12.3237  12.3237  12.3748  12.3748

     the Fermi energy is    10.3983 ev

!    total energy              =    -344.00176159 Ry
     estimated scf accuracy    <       0.00000031 Ry
     smearing contrib. (-TS)   =       0.00093210 Ry
     internal energy E=F+TS    =    -344.00269369 Ry

     The total energy is F=E-TS. E is the sum of the following terms:
     one-electron contribution =    -254.80632958 Ry
     hartree contribution      =     136.59162272 Ry
     xc contribution           =     -45.76133304 Ry
     ewald contribution        =    -180.02665378 Ry

     convergence has been achieved in   8 iterations

     Forces acting on atoms (cartesian axes, Ry/au):

     atom    1 type  1   force =     0.00000000    0.00000000    0.00000000
     atom    2 type  2   force =     0.00000000    0.00000000    0.00000000

     Total force =     0.000000     Total SCF correction =     0.000000


     Computing stress (Cartesian axis) and pressure

          total   stress  (Ry/bohr**3)                   (kbar)     P=     -322.53
  -0.00219250   0.00000000   0.00000000         -322.53        0.00        0.00
   0.00000000  -0.00219250   0.00000000            0.00     -322.53        0.00
   0.00000000   0.00000000  -0.00219250            0.00        0.00     -322.53


     Writing all to output data dir ./tmp/SiNi.save/ :
     XML data file, charge density, pseudopotentials, collected wavefunctions

     init_run     :      0.55s CPU      0.59s WALL (       1 calls)
     electrons    :      9.77s CPU     10.22s WALL (       1 calls)
     forces       :      0.21s CPU      0.21s WALL (       1 calls)
     stress       :      0.82s CPU      0.84s WALL (       1 calls)

     Called by init_run:
     wfcinit      :      0.39s CPU      0.41s WALL (       1 calls)
     potinit      :      0.05s CPU      0.05s WALL (       1 calls)
     hinit0       :      0.11s CPU      0.11s WALL (       1 calls)

     Called by electrons:
     c_bands      :      8.62s CPU      9.01s WALL (       8 calls)
     sum_band     :      1.05s CPU      1.11s WALL (       8 calls)
     v_of_rho     :      0.09s CPU      0.09s WALL (       9 calls)
     mix_rho      :      0.01s CPU      0.01s WALL (       8 calls)

     Called by c_bands:
     init_us_2    :      0.30s CPU      0.33s WALL (     665 calls)
     cegterg      :      8.13s CPU      8.48s WALL (     280 calls)

     Called by *egterg:
     cdiaghg      :      0.12s CPU      0.13s WALL (     993 calls)
     h_psi        :      6.20s CPU      6.52s WALL (    1028 calls)
     g_psi        :      0.04s CPU      0.05s WALL (     713 calls)

     Called by h_psi:
     h_psi:calbec :      0.81s CPU      0.84s WALL (    1028 calls)
     vloc_psi     :      4.56s CPU      4.84s WALL (    1028 calls)
                                        0.00s GPU  (    1028 calls)
     add_vuspsi   :      0.78s CPU      0.80s WALL (    1028 calls)

     General routines
     calbec       :      1.49s CPU      1.54s WALL (    1623 calls)
     fft          :      0.03s CPU      0.04s WALL (     114 calls)
     ffts         :      0.00s CPU      0.00s WALL (       8 calls)
     fftw         :      4.69s CPU      5.08s WALL (   25534 calls)


     PWSCF        :     11.39s CPU     11.92s WALL


   This run was terminated on:  19: 1:53   7Jan2026            

=------------------------------------------------------------------------------=
   JOB DONE.
=------------------------------------------------------------------------------=
