
     Program PWSCF v.7.5 starts on  7Jan2026 at 19: 7:24 

     This program is part of the open-source Quantum ESPRESSO suite
     for quantum simulation of materials; please cite
         "P. Giannozzi et al., J. Phys.:Condens. Matter 21 395502 (2009);
         "P. Giannozzi et al., J. Phys.:Condens. Matter 29 465901 (2017);
         "P. Giannozzi et al., J. Chem. Phys. 152 154105 (2020);
          URL http://www.quantum-espresso.org", 
     in publications or presentations arising from this work. More details at
     http://www.quantum-espresso.org/quote

     Serial version
     1076 MiB available memory on the printing compute node when the environment starts

     Waiting for input...
     Reading input from standard input

     Current dimensions of program PWSCF are:
     Max number of different atomic species (ntypx) = 10
     Max number of k-points (npk) =  40000
     Max angular momentum in pseudopotentials (lmaxx) =  4


     G-vector sticks info
     --------------------
     sticks:   dense  smooth     PW     G-vecs:    dense   smooth      PW
     Sum        1265    1265    373                33641    33641    5449

     Using Slab Decomposition



     bravais-lattice index     =            1
     lattice parameter (alat)  =       6.0000  a.u.
     unit-cell volume          =     216.0000 (a.u.)^3
     number of atoms/cell      =            2
     number of atomic types    =            2
     number of electrons       =        22.00
     number of Kohn-Sham states=           15
     kinetic-energy cutoff     =     110.0000  Ry
     charge density cutoff     =     440.0000  Ry
     scf convergence threshold =      1.0E-06
     mixing beta               =       0.7000
     number of iterations used =            8  plain     mixing
     Exchange-correlation= PBE
                           (   1   4   3   4   0   0   0)

     celldm(1)=   6.000000  celldm(2)=   0.000000  celldm(3)=   0.000000
     celldm(4)=   0.000000  celldm(5)=   0.000000  celldm(6)=   0.000000

     crystal axes: (cart. coord. in units of alat)
               a(1) = (   1.000000   0.000000   0.000000 )  
               a(2) = (   0.000000   1.000000   0.000000 )  
               a(3) = (   0.000000   0.000000   1.000000 )  

     reciprocal axes: (cart. coord. in units 2 pi/alat)
               b(1) = (  1.000000  0.000000  0.000000 )  
               b(2) = (  0.000000  1.000000  0.000000 )  
               b(3) = (  0.000000  0.000000  1.000000 )  


     PseudoPot. # 1 for Si read from file:
     ./PSEUDO/Si.upf
     MD5 check sum: 02fab3f35e82123ef5bf1cb05d5b1a5e
     Pseudo is Norm-conserving + core correction, Zval =  4.0
     Generated using ONCVPSP code by D. R. Hamann
     Using radial grid of 1510 points,  6 beta functions with: 
                l(1) =   0
                l(2) =   0
                l(3) =   1
                l(4) =   1
                l(5) =   2
                l(6) =   2

     PseudoPot. # 2 for Ni read from file:
     ./PSEUDO/Ni.upf
     MD5 check sum: 2b0a79d100e227970886d6963e34175b
     Pseudo is Norm-conserving + core correction, Zval = 18.0
     Generated using ONCVPSP code by D. R. Hamann
     Using radial grid of 1372 points,  6 beta functions with: 
                l(1) =   0
                l(2) =   0
                l(3) =   1
                l(4) =   1
                l(5) =   2
                l(6) =   2

     atomic species   valence    mass     pseudopotential
     Si                4.00    28.08550     Si( 1.00)
     Ni               18.00    58.69340     Ni( 1.00)

     48 Sym. Ops., with inversion, found



   Cartesian axes

     site n.     atom                  positions (alat units)
         1        Si     tau(   1) = (   0.0000000   0.0000000   0.0000000  )
         2        Ni     tau(   2) = (   0.5000000   0.5000000   0.5000000  )

     number of k points=    56  Methfessel-Paxton smearing, width (Ry)=  0.0400
                       cart. coord. in units 2pi/alat
        k(    1) = (   0.0000000   0.0000000   0.0000000), wk =   0.0020000
        k(    2) = (   0.0000000   0.0000000   0.1000000), wk =   0.0120000
        k(    3) = (   0.0000000   0.0000000   0.2000000), wk =   0.0120000
        k(    4) = (   0.0000000   0.0000000   0.3000000), wk =   0.0120000
        k(    5) = (   0.0000000   0.0000000   0.4000000), wk =   0.0120000
        k(    6) = (   0.0000000   0.0000000  -0.5000000), wk =   0.0060000
        k(    7) = (   0.0000000   0.1000000   0.1000000), wk =   0.0240000
        k(    8) = (   0.0000000   0.1000000   0.2000000), wk =   0.0480000
        k(    9) = (   0.0000000   0.1000000   0.3000000), wk =   0.0480000
        k(   10) = (   0.0000000   0.1000000   0.4000000), wk =   0.0480000
        k(   11) = (   0.0000000   0.1000000  -0.5000000), wk =   0.0240000
        k(   12) = (   0.0000000   0.2000000   0.2000000), wk =   0.0240000
        k(   13) = (   0.0000000   0.2000000   0.3000000), wk =   0.0480000
        k(   14) = (   0.0000000   0.2000000   0.4000000), wk =   0.0480000
        k(   15) = (   0.0000000   0.2000000  -0.5000000), wk =   0.0240000
        k(   16) = (   0.0000000   0.3000000   0.3000000), wk =   0.0240000
        k(   17) = (   0.0000000   0.3000000   0.4000000), wk =   0.0480000
        k(   18) = (   0.0000000   0.3000000  -0.5000000), wk =   0.0240000
        k(   19) = (   0.0000000   0.4000000   0.4000000), wk =   0.0240000
        k(   20) = (   0.0000000   0.4000000  -0.5000000), wk =   0.0240000
        k(   21) = (   0.0000000  -0.5000000  -0.5000000), wk =   0.0060000
        k(   22) = (   0.1000000   0.1000000   0.1000000), wk =   0.0160000
        k(   23) = (   0.1000000   0.1000000   0.2000000), wk =   0.0480000
        k(   24) = (   0.1000000   0.1000000   0.3000000), wk =   0.0480000
        k(   25) = (   0.1000000   0.1000000   0.4000000), wk =   0.0480000
        k(   26) = (   0.1000000   0.1000000  -0.5000000), wk =   0.0240000
        k(   27) = (   0.1000000   0.2000000   0.2000000), wk =   0.0480000
        k(   28) = (   0.1000000   0.2000000   0.3000000), wk =   0.0960000
        k(   29) = (   0.1000000   0.2000000   0.4000000), wk =   0.0960000
        k(   30) = (   0.1000000   0.2000000  -0.5000000), wk =   0.0480000
        k(   31) = (   0.1000000   0.3000000   0.3000000), wk =   0.0480000
        k(   32) = (   0.1000000   0.3000000   0.4000000), wk =   0.0960000
        k(   33) = (   0.1000000   0.3000000  -0.5000000), wk =   0.0480000
        k(   34) = (   0.1000000   0.4000000   0.4000000), wk =   0.0480000
        k(   35) = (   0.1000000   0.4000000  -0.5000000), wk =   0.0480000
        k(   36) = (   0.1000000  -0.5000000  -0.5000000), wk =   0.0120000
        k(   37) = (   0.2000000   0.2000000   0.2000000), wk =   0.0160000
        k(   38) = (   0.2000000   0.2000000   0.3000000), wk =   0.0480000
        k(   39) = (   0.2000000   0.2000000   0.4000000), wk =   0.0480000
        k(   40) = (   0.2000000   0.2000000  -0.5000000), wk =   0.0240000
        k(   41) = (   0.2000000   0.3000000   0.3000000), wk =   0.0480000
        k(   42) = (   0.2000000   0.3000000   0.4000000), wk =   0.0960000
        k(   43) = (   0.2000000   0.3000000  -0.5000000), wk =   0.0480000
        k(   44) = (   0.2000000   0.4000000   0.4000000), wk =   0.0480000
        k(   45) = (   0.2000000   0.4000000  -0.5000000), wk =   0.0480000
        k(   46) = (   0.2000000  -0.5000000  -0.5000000), wk =   0.0120000
        k(   47) = (   0.3000000   0.3000000   0.3000000), wk =   0.0160000
        k(   48) = (   0.3000000   0.3000000   0.4000000), wk =   0.0480000
        k(   49) = (   0.3000000   0.3000000  -0.5000000), wk =   0.0240000
        k(   50) = (   0.3000000   0.4000000   0.4000000), wk =   0.0480000
        k(   51) = (   0.3000000   0.4000000  -0.5000000), wk =   0.0480000
        k(   52) = (   0.3000000  -0.5000000  -0.5000000), wk =   0.0120000
        k(   53) = (   0.4000000   0.4000000   0.4000000), wk =   0.0160000
        k(   54) = (   0.4000000   0.4000000  -0.5000000), wk =   0.0240000
        k(   55) = (   0.4000000  -0.5000000  -0.5000000), wk =   0.0120000
        k(   56) = (  -0.5000000  -0.5000000  -0.5000000), wk =   0.0020000

     Dense  grid:    33641 G-vectors     FFT dimensions: (  45,  45,  45)

     Estimated max dynamical RAM per process >      85.75 MB

     Initial potential from superposition of free atoms

     starting charge      21.9992, renormalised to      22.0000
     Starting wfcs are   14 randomized atomic wfcs +    1 random wfcs

     total cpu time spent up to now is        1.7 secs

     Self-consistent Calculation

     iteration #  1     ecut=   110.00 Ry     beta= 0.70
     Davidson diagonalization with overlap
     ethr =  1.00E-02,  avg # of iterations =  3.5

     total cpu time spent up to now is        6.4 secs

     total energy              =    -343.56919196 Ry
     estimated scf accuracy    <       0.62740929 Ry

     iteration #  2     ecut=   110.00 Ry     beta= 0.70
     Davidson diagonalization with overlap
     ethr =  2.85E-03,  avg # of iterations =  3.7

     total cpu time spent up to now is       11.9 secs

     total energy              =    -342.39487989 Ry
     estimated scf accuracy    <      17.21502667 Ry

     iteration #  3     ecut=   110.00 Ry     beta= 0.70
     Davidson diagonalization with overlap
     ethr =  2.85E-03,  avg # of iterations =  3.4

     total cpu time spent up to now is       17.1 secs

     total energy              =    -344.01054467 Ry
     estimated scf accuracy    <       0.03527149 Ry

     iteration #  4     ecut=   110.00 Ry     beta= 0.70
     Davidson diagonalization with overlap
     ethr =  1.60E-04,  avg # of iterations =  2.1

     total cpu time spent up to now is       21.2 secs

     total energy              =    -344.00512839 Ry
     estimated scf accuracy    <       0.03204825 Ry

     iteration #  5     ecut=   110.00 Ry     beta= 0.70
     Davidson diagonalization with overlap
     ethr =  1.46E-04,  avg # of iterations =  1.2

     total cpu time spent up to now is       24.8 secs

     total energy              =    -344.00822908 Ry
     estimated scf accuracy    <       0.00064727 Ry

     iteration #  6     ecut=   110.00 Ry     beta= 0.70
     Davidson diagonalization with overlap
     ethr =  2.94E-06,  avg # of iterations =  3.5

     total cpu time spent up to now is       29.2 secs

     total energy              =    -344.00828502 Ry
     estimated scf accuracy    <       0.00047906 Ry

     iteration #  7     ecut=   110.00 Ry     beta= 0.70
     Davidson diagonalization with overlap
     ethr =  2.18E-06,  avg # of iterations =  1.0

     total cpu time spent up to now is       32.7 secs

     total energy              =    -344.00822103 Ry
     estimated scf accuracy    <       0.00027966 Ry

     iteration #  8     ecut=   110.00 Ry     beta= 0.70
     Davidson diagonalization with overlap
     ethr =  1.27E-06,  avg # of iterations =  1.4

     total cpu time spent up to now is       36.4 secs

     total energy              =    -344.00824879 Ry
     estimated scf accuracy    <       0.00000103 Ry

     iteration #  9     ecut=   110.00 Ry     beta= 0.70
     Davidson diagonalization with overlap
     ethr =  4.70E-09,  avg # of iterations =  4.1

     total cpu time spent up to now is       42.0 secs

     End of self-consistent calculation

          k = 0.0000 0.0000 0.0000 (  4169 PWs)   bands (ev):

   -92.4421 -52.8164 -52.8164 -52.8164  -0.5151   8.2774   8.2774   9.2868
     9.2868   9.2868  12.6643  12.6643  12.6643  16.3981  17.1088

          k = 0.0000 0.0000 0.1000 (  4208 PWs)   bands (ev):

   -92.4421 -52.8170 -52.8164 -52.8164  -0.3751   8.1987   8.3063   9.2089
     9.2089   9.2927  11.6338  12.8690  12.8690  16.7020  17.1383

          k = 0.0000 0.0000 0.2000 (  4196 PWs)   bands (ev):

   -92.4420 -52.8185 -52.8163 -52.8163   0.0393   7.7076   8.3829   9.0296
     9.0296   9.3081  10.2997  13.4262  13.4262  17.0268  17.2230

          k = 0.0000 0.0000 0.3000 (  4184 PWs)   bands (ev):

   -92.4419 -52.8204 -52.8161 -52.8161   0.7050   6.4680   8.4802   8.8423
     8.8423   9.3273   9.8231  14.2249  14.2249  17.3470  17.5198

          k = 0.0000 0.0000 0.4000 (  4192 PWs)   bands (ev):

   -92.4419 -52.8219 -52.8160 -52.8160   1.5378   5.0582   8.5610   8.7099
     8.7099   9.3428   9.7905  15.1129  15.1129  17.4685  18.1945

          k = 0.0000 0.0000-0.5000 (  4220 PWs)   bands (ev):

   -92.4418 -52.8225 -52.8160 -52.8160   2.0830   4.2968   8.5925   8.6629
     8.6629   9.3488   9.8098  15.6204  15.6204  17.5215  18.5429

          k = 0.0000 0.1000 0.1000 (  4204 PWs)   bands (ev):

   -92.4421 -52.8170 -52.8170 -52.8164  -0.2359   8.1998   8.2711   9.1128
     9.1829   9.2553  11.7647  11.8817  13.0613  16.9781  18.2218

          k = 0.0000 0.1000 0.2000 (  4189 PWs)   bands (ev):

   -92.4420 -52.8185 -52.8169 -52.8162   0.1761   7.7671   8.3282   8.9293
     9.0340   9.2581  10.4493  12.3223  13.5885  17.1996  18.5437

          k = 0.0000 0.1000 0.3000 (  4195 PWs)   bands (ev):

   -92.4419 -52.8204 -52.8167 -52.8161   0.8370   6.5683   8.4327   8.7955
     8.8597   9.2802   9.8824  13.0306  14.3470  17.4807  18.8918

          k = 0.0000 0.1000 0.4000 (  4190 PWs)   bands (ev):

   -92.4418 -52.8219 -52.8166 -52.8160   1.6607   5.1861   8.5286   8.6858
     8.7340   9.2995   9.8001  13.8326  15.1813  17.4850  18.1355

          k = 0.0000 0.1000-0.5000 (  4202 PWs)   bands (ev):

   -92.4418 -52.8225 -52.8166 -52.8159   2.1951   4.4405   8.5929   8.6156
     8.6889   9.3070   9.8072  14.3029  15.6433  16.9578  18.0911

          k = 0.0000 0.2000 0.2000 (  4204 PWs)   bands (ev):

   -92.4419 -52.8184 -52.8184 -52.8161   0.5801   7.8925   7.9450   8.8050
     9.0124   9.1719  10.7537  10.9057  14.0376  17.3741  19.1841

          k = 0.0000 0.2000 0.3000 (  4196 PWs)   bands (ev):

   -92.4418 -52.8202 -52.8182 -52.8160   1.2255   6.8419   8.1210   8.7661
     8.9024   9.1672  10.0282  11.4116  14.6819  16.9298  18.1736

          k = 0.0000 0.2000 0.4000 (  4196 PWs)   bands (ev):

   -92.4418 -52.8218 -52.8181 -52.8159   2.0203   5.5581   8.2891   8.7054
     8.7976   9.1907   9.8210  12.1101  15.3625  15.5569  18.4500

          k = 0.0000 0.2000-0.5000 (  4220 PWs)   bands (ev):

   -92.4417 -52.8223 -52.8181 -52.8158   2.5209   4.8644   8.3633   8.6629
     8.7582   9.2014   9.7958  12.5640  14.8358  15.7080  18.6565

          k = 0.0000 0.3000 0.3000 (  4204 PWs)   bands (ev):

   -92.4418 -52.8201 -52.8201 -52.8158   1.8403   7.0261   7.5279   8.7694
     8.9277   9.0669  10.0539  10.6301  15.1459  15.2075  18.5322

          k = 0.0000 0.3000 0.4000 (  4205 PWs)   bands (ev):

   -92.4417 -52.8216 -52.8200 -52.8157   2.5786   6.1242   7.7461   8.7120
     8.8770   9.0650   9.8226  10.9126  13.7201  15.5966  19.1014

          k = 0.0000 0.3000-0.5000 (  4214 PWs)   bands (ev):

   -92.4417 -52.8222 -52.8199 -52.8157   3.0187   5.5407   7.9199   8.6545
     8.8460   9.0777   9.7643  11.2385  12.9977  15.8002  19.4318

          k = 0.0000 0.4000 0.4000 (  4212 PWs)   bands (ev):

   -92.4416 -52.8215 -52.8215 -52.8156   3.2182   6.6154   7.1376   8.5834
     8.9310   8.9805   9.7544  10.4981  12.3262  15.8025  19.9025

          k = 0.0000 0.4000-0.5000 (  4212 PWs)   bands (ev):

   -92.4416 -52.8220 -52.8214 -52.8156   3.5669   6.3872   7.3157   8.4190
     8.9189   8.9825   9.7091  10.5046  11.7365  15.8873  20.4267

          k = 0.0000-0.5000-0.5000 (  4196 PWs)   bands (ev):

   -92.4416 -52.8220 -52.8220 -52.8155   3.8474   6.9838   6.9838   8.0516
     8.9472   8.9472   9.6772  10.2887  11.3082  15.9243  21.2936

          k = 0.1000 0.1000 0.1000 (  4181 PWs)   bands (ev):

   -92.4420 -52.8169 -52.8169 -52.8169  -0.0974   8.2282   8.2282   9.0366
     9.1734   9.1734  11.8612  12.0703  12.0703  18.1933  18.4923

          k = 0.1000 0.1000 0.2000 (  4192 PWs)   bands (ev):

   -92.4420 -52.8184 -52.8168 -52.8168   0.3122   7.8227   8.3031   8.8768
     8.9901   9.1946  10.5902  12.3784  12.5728  18.5541  18.6454

          k = 0.1000 0.1000 0.3000 (  4200 PWs)   bands (ev):

   -92.4419 -52.8203 -52.8167 -52.8167   0.9684   6.6672   8.3959   8.8054
     8.8198   9.2260   9.9483  13.0301  13.2773  18.6419  18.8134

          k = 0.1000 0.1000 0.4000 (  4198 PWs)   bands (ev):

   -92.4418 -52.8218 -52.8166 -52.8166   1.7835   5.3124   8.4677   8.6819
     8.7785   9.2507   9.8151  13.7983  14.0409  17.5350  18.1304

          k = 0.1000 0.1000-0.5000 (  4218 PWs)   bands (ev):

   -92.4418 -52.8224 -52.8165 -52.8165   2.3077   4.5818   8.4907   8.6433
     8.7566   9.2601   9.8089  14.2631  14.4582  16.8514  17.5191

          k = 0.1000 0.2000 0.2000 (  4194 PWs)   bands (ev):

   -92.4419 -52.8183 -52.8183 -52.8167   0.7140   7.9618   7.9640   8.7622
     8.9492   9.0999  10.9339  10.9752  12.9025  18.4945  19.5263

          k = 0.1000 0.2000 0.3000 (  4197 PWs)   bands (ev):

   -92.4418 -52.8202 -52.8182 -52.8166   1.3552   6.9365   8.1192   8.7886
     8.8383   9.1114  10.1141  11.4967  13.5135  17.1411  19.3974

          k = 0.1000 0.2000 0.4000 (  4213 PWs)   bands (ev):

   -92.4417 -52.8217 -52.8181 -52.8164   2.1426   5.6782   8.2247   8.7259
     8.8558   9.1373   9.8507  12.1616  14.1937  15.6923  18.3388

          k = 0.1000 0.2000-0.5000 (  4222 PWs)   bands (ev):

   -92.4417 -52.8223 -52.8180 -52.8164   2.6353   4.9972   8.2570   8.7027
     8.8606   9.1478   9.8075  12.5852  14.5631  14.9887  17.7471

          k = 0.1000 0.3000 0.3000 (  4210 PWs)   bands (ev):

   -92.4417 -52.8201 -52.8200 -52.8164   1.9670   7.1383   7.5237   8.7853
     8.8704   9.0581  10.1921  10.6211  14.0104  15.3326  19.3892

          k = 0.1000 0.3000 0.4000 (  4218 PWs)   bands (ev):

   -92.4417 -52.8216 -52.8199 -52.8163   2.7005   6.2300   7.7184   8.7171
     8.9421   9.0618   9.8771  10.9078  13.8377  14.5557  18.8821

          k = 0.1000 0.3000-0.5000 (  4212 PWs)   bands (ev):

   -92.4416 -52.8221 -52.8199 -52.8163   3.1367   5.6537   7.8471   8.6913
     8.9702   9.0603   9.7870  11.2154  13.1371  14.8216  18.4764

          k = 0.1000 0.4000 0.4000 (  4216 PWs)   bands (ev):

   -92.4416 -52.8214 -52.8214 -52.8162   3.3410   6.7050   7.1230   8.5769
     9.0191   9.0708   9.8063  10.4290  12.4214  14.9118  19.3021

          k = 0.1000 0.4000-0.5000 (  4212 PWs)   bands (ev):

   -92.4416 -52.8220 -52.8214 -52.8162   3.6916   6.4522   7.2849   8.4602
     9.0571   9.0726   9.7286  10.4286  11.8162  15.0756  19.3165

          k = 0.1000-0.5000-0.5000 (  4212 PWs)   bands (ev):

   -92.4415 -52.8220 -52.8220 -52.8161   3.9777   6.9669   6.9669   8.1852
     9.0909   9.0909   9.6789  10.1914  11.3416  15.1884  19.7920

          k = 0.2000 0.2000 0.2000 (  4199 PWs)   bands (ev):

   -92.4418 -52.8182 -52.8182 -52.8182   1.1089   7.9984   7.9984   8.5098
     8.9622   8.9622  11.1066  11.4048  11.4048  18.5179  19.9206

          k = 0.2000 0.2000 0.3000 (  4204 PWs)   bands (ev):

   -92.4417 -52.8201 -52.8181 -52.8181   1.7367   7.1849   8.0253   8.6537
     8.8586   9.0312  10.3177  11.5534  12.0753  17.1445  18.0076

          k = 0.2000 0.2000 0.4000 (  4220 PWs)   bands (ev):

   -92.4417 -52.8216 -52.8180 -52.8179   2.5004   6.0201   8.0293   8.8149
     8.8977   9.0750   9.9235  11.9955  12.8503  15.8308  16.4787

          k = 0.2000 0.2000-0.5000 (  4224 PWs)   bands (ev):

   -92.4416 -52.8222 -52.8179 -52.8179   2.9687   5.3823   8.0264   8.8063
     9.0240   9.0549   9.8302  12.2672  13.3236  15.2437  15.7522

          k = 0.2000 0.3000 0.3000 (  4220 PWs)   bands (ev):

   -92.4417 -52.8199 -52.8199 -52.8179   2.3388   7.4219   7.5093   8.6188
     8.9209   9.0530  10.5638  10.5870  12.3514  15.6633  17.8713

          k = 0.2000 0.3000 0.4000 (  4229 PWs)   bands (ev):

   -92.4416 -52.8214 -52.8198 -52.8178   3.0579   6.5131   7.6388   8.7482
     8.9955   9.1638  10.0112  10.8695  12.9449  14.2594  16.7952

          k = 0.2000 0.3000-0.5000 (  4210 PWs)   bands (ev):

   -92.4416 -52.8220 -52.8198 -52.8178   3.4822   5.9671   7.6818   8.7999
     9.0400   9.2548   9.8420  11.0584  13.3908  13.5474  16.2094

          k = 0.2000 0.4000 0.4000 (  4221 PWs)   bands (ev):

   -92.4415 -52.8213 -52.8213 -52.8177   3.7020   6.9187   7.0875   8.6593
     9.2100   9.2646  10.0318  10.1646  12.6435  13.5388  17.3156

          k = 0.2000 0.4000-0.5000 (  4212 PWs)   bands (ev):

   -92.4415 -52.8219 -52.8213 -52.8176   4.0597   6.6046   7.2132   8.6464
     9.2723   9.4209   9.8061  10.1633  12.0719  13.7253  17.0381

          k = 0.2000-0.5000-0.5000 (  4204 PWs)   bands (ev):

   -92.4415 -52.8218 -52.8218 -52.8176   4.3658   6.9272   6.9272   8.5587
     9.5132   9.5132   9.6834   9.8408  11.4535  13.9085  17.5398

          k = 0.3000 0.3000 0.3000 (  4239 PWs)   bands (ev):

   -92.4416 -52.8198 -52.8198 -52.8198   2.9238   7.4855   7.4855   8.5188
     9.0672   9.0672  10.3360  11.2163  11.2163  15.7416  16.6737

          k = 0.3000 0.3000 0.4000 (  4214 PWs)   bands (ev):

   -92.4415 -52.8213 -52.8197 -52.8196   3.6170   6.8499   7.4629   8.8384
     9.0878   9.3108   9.9810  10.7466  12.0468  14.7333  15.0399

          k = 0.3000 0.3000-0.5000 (  4200 PWs)   bands (ev):

   -92.4415 -52.8218 -52.8196 -52.8196   4.0210   6.3900   7.4536   8.9722
     9.0970   9.5172   9.9115  10.5249  12.6958  14.1219  14.2733

          k = 0.3000 0.4000 0.4000 (  4216 PWs)   bands (ev):

   -92.4414 -52.8212 -52.8211 -52.8195   4.2721   7.0481   7.0858   8.9913
     9.4013   9.4168   9.5888  10.5778  12.1511  13.4531  15.4872

          k = 0.3000 0.4000-0.5000 (  4210 PWs)   bands (ev):

   -92.4414 -52.8217 -52.8211 -52.8195   4.6473   6.7498   7.1268   9.0510
     9.3470   9.4407  10.0134  10.1819  12.5313  12.7664  15.0298

          k = 0.3000-0.5000-0.5000 (  4208 PWs)   bands (ev):

   -92.4414 -52.8217 -52.8217 -52.8194   5.0015   6.8850   6.8850   9.0715
     9.1146   9.6890  10.2005  10.2005  11.6873  12.9407  15.5472

          k = 0.4000 0.4000 0.4000 (  4218 PWs)   bands (ev):

   -92.4414 -52.8210 -52.8210 -52.8210   4.9579   7.0188   7.0188   8.8322
     9.4591   9.4591   9.8063  11.4511  11.4511  14.1218  14.1441

          k = 0.4000 0.4000-0.5000 (  4212 PWs)   bands (ev):

   -92.4413 -52.8216 -52.8210 -52.8210   5.3769   6.8311   7.0081   8.5140
     9.4748   9.5537  10.4985  10.8117  12.4086  12.8892  13.6228

          k = 0.4000-0.5000-0.5000 (  4224 PWs)   bands (ev):

   -92.4413 -52.8215 -52.8215 -52.8209   5.8635   6.8546   6.8546   8.0602
     9.5215   9.6936  11.1465  11.1466  12.0860  12.4604  13.8182

          k =-0.5000-0.5000-0.5000 (  4224 PWs)   bands (ev):

   -92.4413 -52.8215 -52.8215 -52.8215   6.8437   6.8437   6.8437   6.9841
     9.6953   9.6953  12.3273  12.3273  12.3273  12.3764  12.3764

     the Fermi energy is    10.4274 ev

!    total energy              =    -344.00824984 Ry
     estimated scf accuracy    <       0.00000066 Ry
     smearing contrib. (-TS)   =       0.00153254 Ry
     internal energy E=F+TS    =    -344.00978238 Ry

     The total energy is F=E-TS. E is the sum of the following terms:
     one-electron contribution =    -254.83925961 Ry
     hartree contribution      =     136.62145235 Ry
     xc contribution           =     -45.76532134 Ry
     ewald contribution        =    -180.02665378 Ry

     convergence has been achieved in   9 iterations

     Forces acting on atoms (cartesian axes, Ry/au):

     atom    1 type  1   force =     0.00000000    0.00000000    0.00000000
     atom    2 type  2   force =     0.00000000    0.00000000    0.00000000

     Total force =     0.000000     Total SCF correction =     0.000000


     Computing stress (Cartesian axis) and pressure

          total   stress  (Ry/bohr**3)                   (kbar)     P=     -255.39
  -0.00173614   0.00000000   0.00000000         -255.39        0.00        0.00
   0.00000000  -0.00173614   0.00000000            0.00     -255.39        0.00
   0.00000000   0.00000000  -0.00173614            0.00        0.00     -255.39


     Writing all to output data dir ./tmp/SiNi.save/ :
     XML data file, charge density, pseudopotentials, collected wavefunctions

     init_run     :      1.60s CPU      1.69s WALL (       1 calls)
     electrons    :     39.36s CPU     40.24s WALL (       1 calls)
     forces       :      0.57s CPU      0.57s WALL (       1 calls)
     stress       :      2.15s CPU      2.19s WALL (       1 calls)

     Called by init_run:
     wfcinit      :      1.37s CPU      1.44s WALL (       1 calls)
     potinit      :      0.07s CPU      0.08s WALL (       1 calls)
     hinit0       :      0.13s CPU      0.14s WALL (       1 calls)

     Called by electrons:
     c_bands      :     34.44s CPU     35.20s WALL (       9 calls)
     sum_band     :      4.68s CPU      4.79s WALL (       9 calls)
     v_of_rho     :      0.22s CPU      0.23s WALL (      10 calls)
     mix_rho      :      0.03s CPU      0.03s WALL (       9 calls)

     Called by c_bands:
     init_us_2    :      0.97s CPU      1.03s WALL (    1176 calls)
     cegterg      :     32.87s CPU     33.57s WALL (     504 calls)

     Called by *egterg:
     cdiaghg      :      0.25s CPU      0.26s WALL (    1841 calls)
     h_psi        :     27.06s CPU     27.72s WALL (    1897 calls)
     g_psi        :      0.13s CPU      0.14s WALL (    1337 calls)

     Called by h_psi:
     h_psi:calbec :      2.65s CPU      2.67s WALL (    1897 calls)
     vloc_psi     :     21.86s CPU     22.46s WALL (    1897 calls)
                                        0.00s GPU  (    1897 calls)
     add_vuspsi   :      2.41s CPU      2.44s WALL (    1897 calls)

     General routines
     calbec       :      4.48s CPU      4.53s WALL (    2849 calls)
     fft          :      0.11s CPU      0.11s WALL (     124 calls)
     ffts         :      0.01s CPU      0.01s WALL (       9 calls)
     fftw         :     23.33s CPU     23.98s WALL (   46844 calls)


     PWSCF        :     43.73s CPU     44.80s WALL


   This run was terminated on:  19: 8: 9   7Jan2026            

=------------------------------------------------------------------------------=
   JOB DONE.
=------------------------------------------------------------------------------=
