
     Program PWSCF v.7.5 starts on  7Jan2026 at 19: 8: 9 

     This program is part of the open-source Quantum ESPRESSO suite
     for quantum simulation of materials; please cite
         "P. Giannozzi et al., J. Phys.:Condens. Matter 21 395502 (2009);
         "P. Giannozzi et al., J. Phys.:Condens. Matter 29 465901 (2017);
         "P. Giannozzi et al., J. Chem. Phys. 152 154105 (2020);
          URL http://www.quantum-espresso.org", 
     in publications or presentations arising from this work. More details at
     http://www.quantum-espresso.org/quote

     Serial version
     1077 MiB available memory on the printing compute node when the environment starts

     Waiting for input...
     Reading input from standard input

     Current dimensions of program PWSCF are:
     Max number of different atomic species (ntypx) = 10
     Max number of k-points (npk) =  40000
     Max angular momentum in pseudopotentials (lmaxx) =  4


     G-vector sticks info
     --------------------
     sticks:   dense  smooth     PW     G-vecs:    dense   smooth      PW
     Sum        1265    1265    373                33641    33641    5449

     Using Slab Decomposition



     bravais-lattice index     =            1
     lattice parameter (alat)  =       6.0000  a.u.
     unit-cell volume          =     216.0000 (a.u.)^3
     number of atoms/cell      =            2
     number of atomic types    =            2
     number of electrons       =        22.00
     number of Kohn-Sham states=           15
     kinetic-energy cutoff     =     110.0000  Ry
     charge density cutoff     =     440.0000  Ry
     scf convergence threshold =      1.0E-06
     mixing beta               =       0.7000
     number of iterations used =            8  plain     mixing
     Exchange-correlation= PBE
                           (   1   4   3   4   0   0   0)

     celldm(1)=   6.000000  celldm(2)=   0.000000  celldm(3)=   0.000000
     celldm(4)=   0.000000  celldm(5)=   0.000000  celldm(6)=   0.000000

     crystal axes: (cart. coord. in units of alat)
               a(1) = (   1.000000   0.000000   0.000000 )  
               a(2) = (   0.000000   1.000000   0.000000 )  
               a(3) = (   0.000000   0.000000   1.000000 )  

     reciprocal axes: (cart. coord. in units 2 pi/alat)
               b(1) = (  1.000000  0.000000  0.000000 )  
               b(2) = (  0.000000  1.000000  0.000000 )  
               b(3) = (  0.000000  0.000000  1.000000 )  


     PseudoPot. # 1 for Si read from file:
     ./PSEUDO/Si.upf
     MD5 check sum: 02fab3f35e82123ef5bf1cb05d5b1a5e
     Pseudo is Norm-conserving + core correction, Zval =  4.0
     Generated using ONCVPSP code by D. R. Hamann
     Using radial grid of 1510 points,  6 beta functions with: 
                l(1) =   0
                l(2) =   0
                l(3) =   1
                l(4) =   1
                l(5) =   2
                l(6) =   2

     PseudoPot. # 2 for Ni read from file:
     ./PSEUDO/Ni.upf
     MD5 check sum: 2b0a79d100e227970886d6963e34175b
     Pseudo is Norm-conserving + core correction, Zval = 18.0
     Generated using ONCVPSP code by D. R. Hamann
     Using radial grid of 1372 points,  6 beta functions with: 
                l(1) =   0
                l(2) =   0
                l(3) =   1
                l(4) =   1
                l(5) =   2
                l(6) =   2

     atomic species   valence    mass     pseudopotential
     Si                4.00    28.08550     Si( 1.00)
     Ni               18.00    58.69340     Ni( 1.00)

     48 Sym. Ops., with inversion, found



   Cartesian axes

     site n.     atom                  positions (alat units)
         1        Si     tau(   1) = (   0.0000000   0.0000000   0.0000000  )
         2        Ni     tau(   2) = (   0.5000000   0.5000000   0.5000000  )

     number of k points=    84  Methfessel-Paxton smearing, width (Ry)=  0.0400
                       cart. coord. in units 2pi/alat
        k(    1) = (   0.0000000   0.0000000   0.0000000), wk =   0.0011574
        k(    2) = (   0.0000000   0.0000000   0.0833333), wk =   0.0069444
        k(    3) = (   0.0000000   0.0000000   0.1666667), wk =   0.0069444
        k(    4) = (   0.0000000   0.0000000   0.2500000), wk =   0.0069444
        k(    5) = (   0.0000000   0.0000000   0.3333333), wk =   0.0069444
        k(    6) = (   0.0000000   0.0000000   0.4166667), wk =   0.0069444
        k(    7) = (   0.0000000   0.0000000  -0.5000000), wk =   0.0034722
        k(    8) = (   0.0000000   0.0833333   0.0833333), wk =   0.0138889
        k(    9) = (   0.0000000   0.0833333   0.1666667), wk =   0.0277778
        k(   10) = (   0.0000000   0.0833333   0.2500000), wk =   0.0277778
        k(   11) = (   0.0000000   0.0833333   0.3333333), wk =   0.0277778
        k(   12) = (   0.0000000   0.0833333   0.4166667), wk =   0.0277778
        k(   13) = (   0.0000000   0.0833333  -0.5000000), wk =   0.0138889
        k(   14) = (   0.0000000   0.1666667   0.1666667), wk =   0.0138889
        k(   15) = (   0.0000000   0.1666667   0.2500000), wk =   0.0277778
        k(   16) = (   0.0000000   0.1666667   0.3333333), wk =   0.0277778
        k(   17) = (   0.0000000   0.1666667   0.4166667), wk =   0.0277778
        k(   18) = (   0.0000000   0.1666667  -0.5000000), wk =   0.0138889
        k(   19) = (   0.0000000   0.2500000   0.2500000), wk =   0.0138889
        k(   20) = (   0.0000000   0.2500000   0.3333333), wk =   0.0277778
        k(   21) = (   0.0000000   0.2500000   0.4166667), wk =   0.0277778
        k(   22) = (   0.0000000   0.2500000  -0.5000000), wk =   0.0138889
        k(   23) = (   0.0000000   0.3333333   0.3333333), wk =   0.0138889
        k(   24) = (   0.0000000   0.3333333   0.4166667), wk =   0.0277778
        k(   25) = (   0.0000000   0.3333333  -0.5000000), wk =   0.0138889
        k(   26) = (   0.0000000   0.4166667   0.4166667), wk =   0.0138889
        k(   27) = (   0.0000000   0.4166667  -0.5000000), wk =   0.0138889
        k(   28) = (   0.0000000  -0.5000000  -0.5000000), wk =   0.0034722
        k(   29) = (   0.0833333   0.0833333   0.0833333), wk =   0.0092593
        k(   30) = (   0.0833333   0.0833333   0.1666667), wk =   0.0277778
        k(   31) = (   0.0833333   0.0833333   0.2500000), wk =   0.0277778
        k(   32) = (   0.0833333   0.0833333   0.3333333), wk =   0.0277778
        k(   33) = (   0.0833333   0.0833333   0.4166667), wk =   0.0277778
        k(   34) = (   0.0833333   0.0833333  -0.5000000), wk =   0.0138889
        k(   35) = (   0.0833333   0.1666667   0.1666667), wk =   0.0277778
        k(   36) = (   0.0833333   0.1666667   0.2500000), wk =   0.0555556
        k(   37) = (   0.0833333   0.1666667   0.3333333), wk =   0.0555556
        k(   38) = (   0.0833333   0.1666667   0.4166667), wk =   0.0555556
        k(   39) = (   0.0833333   0.1666667  -0.5000000), wk =   0.0277778
        k(   40) = (   0.0833333   0.2500000   0.2500000), wk =   0.0277778
        k(   41) = (   0.0833333   0.2500000   0.3333333), wk =   0.0555556
        k(   42) = (   0.0833333   0.2500000   0.4166667), wk =   0.0555556
        k(   43) = (   0.0833333   0.2500000  -0.5000000), wk =   0.0277778
        k(   44) = (   0.0833333   0.3333333   0.3333333), wk =   0.0277778
        k(   45) = (   0.0833333   0.3333333   0.4166667), wk =   0.0555556
        k(   46) = (   0.0833333   0.3333333  -0.5000000), wk =   0.0277778
        k(   47) = (   0.0833333   0.4166667   0.4166667), wk =   0.0277778
        k(   48) = (   0.0833333   0.4166667  -0.5000000), wk =   0.0277778
        k(   49) = (   0.0833333  -0.5000000  -0.5000000), wk =   0.0069444
        k(   50) = (   0.1666667   0.1666667   0.1666667), wk =   0.0092593
        k(   51) = (   0.1666667   0.1666667   0.2500000), wk =   0.0277778
        k(   52) = (   0.1666667   0.1666667   0.3333333), wk =   0.0277778
        k(   53) = (   0.1666667   0.1666667   0.4166667), wk =   0.0277778
        k(   54) = (   0.1666667   0.1666667  -0.5000000), wk =   0.0138889
        k(   55) = (   0.1666667   0.2500000   0.2500000), wk =   0.0277778
        k(   56) = (   0.1666667   0.2500000   0.3333333), wk =   0.0555556
        k(   57) = (   0.1666667   0.2500000   0.4166667), wk =   0.0555556
        k(   58) = (   0.1666667   0.2500000  -0.5000000), wk =   0.0277778
        k(   59) = (   0.1666667   0.3333333   0.3333333), wk =   0.0277778
        k(   60) = (   0.1666667   0.3333333   0.4166667), wk =   0.0555556
        k(   61) = (   0.1666667   0.3333333  -0.5000000), wk =   0.0277778
        k(   62) = (   0.1666667   0.4166667   0.4166667), wk =   0.0277778
        k(   63) = (   0.1666667   0.4166667  -0.5000000), wk =   0.0277778
        k(   64) = (   0.1666667  -0.5000000  -0.5000000), wk =   0.0069444
        k(   65) = (   0.2500000   0.2500000   0.2500000), wk =   0.0092593
        k(   66) = (   0.2500000   0.2500000   0.3333333), wk =   0.0277778
        k(   67) = (   0.2500000   0.2500000   0.4166667), wk =   0.0277778
        k(   68) = (   0.2500000   0.2500000  -0.5000000), wk =   0.0138889
        k(   69) = (   0.2500000   0.3333333   0.3333333), wk =   0.0277778
        k(   70) = (   0.2500000   0.3333333   0.4166667), wk =   0.0555556
        k(   71) = (   0.2500000   0.3333333  -0.5000000), wk =   0.0277778
        k(   72) = (   0.2500000   0.4166667   0.4166667), wk =   0.0277778
        k(   73) = (   0.2500000   0.4166667  -0.5000000), wk =   0.0277778
        k(   74) = (   0.2500000  -0.5000000  -0.5000000), wk =   0.0069444
        k(   75) = (   0.3333333   0.3333333   0.3333333), wk =   0.0092593
        k(   76) = (   0.3333333   0.3333333   0.4166667), wk =   0.0277778
        k(   77) = (   0.3333333   0.3333333  -0.5000000), wk =   0.0138889
        k(   78) = (   0.3333333   0.4166667   0.4166667), wk =   0.0277778
        k(   79) = (   0.3333333   0.4166667  -0.5000000), wk =   0.0277778
        k(   80) = (   0.3333333  -0.5000000  -0.5000000), wk =   0.0069444
        k(   81) = (   0.4166667   0.4166667   0.4166667), wk =   0.0092593
        k(   82) = (   0.4166667   0.4166667  -0.5000000), wk =   0.0138889
        k(   83) = (   0.4166667  -0.5000000  -0.5000000), wk =   0.0069444
        k(   84) = (  -0.5000000  -0.5000000  -0.5000000), wk =   0.0011574

     Dense  grid:    33641 G-vectors     FFT dimensions: (  45,  45,  45)

     Estimated max dynamical RAM per process >     112.72 MB

     Initial potential from superposition of free atoms

     starting charge      21.9992, renormalised to      22.0000
     Starting wfcs are   14 randomized atomic wfcs +    1 random wfcs

     total cpu time spent up to now is        2.4 secs

     Self-consistent Calculation

     iteration #  1     ecut=   110.00 Ry     beta= 0.70
     Davidson diagonalization with overlap
     ethr =  1.00E-02,  avg # of iterations =  3.5

     total cpu time spent up to now is        9.4 secs

     total energy              =    -343.57160230 Ry
     estimated scf accuracy    <       0.62429656 Ry

     iteration #  2     ecut=   110.00 Ry     beta= 0.70
     Davidson diagonalization with overlap
     ethr =  2.84E-03,  avg # of iterations =  3.6

     total cpu time spent up to now is       17.4 secs

     total energy              =    -342.40126658 Ry
     estimated scf accuracy    <      17.12892961 Ry

     iteration #  3     ecut=   110.00 Ry     beta= 0.70
     Davidson diagonalization with overlap
     ethr =  2.84E-03,  avg # of iterations =  3.4

     total cpu time spent up to now is       25.2 secs

     total energy              =    -344.01051564 Ry
     estimated scf accuracy    <       0.03577932 Ry

     iteration #  4     ecut=   110.00 Ry     beta= 0.70
     Davidson diagonalization with overlap
     ethr =  1.63E-04,  avg # of iterations =  2.2

     total cpu time spent up to now is       31.2 secs

     total energy              =    -344.00531378 Ry
     estimated scf accuracy    <       0.03105792 Ry

     iteration #  5     ecut=   110.00 Ry     beta= 0.70
     Davidson diagonalization with overlap
     ethr =  1.41E-04,  avg # of iterations =  1.1

     total cpu time spent up to now is       36.5 secs

     total energy              =    -344.00827774 Ry
     estimated scf accuracy    <       0.00051680 Ry

     iteration #  6     ecut=   110.00 Ry     beta= 0.70
     Davidson diagonalization with overlap
     ethr =  2.35E-06,  avg # of iterations =  3.6

     total cpu time spent up to now is       43.1 secs

     total energy              =    -344.00833137 Ry
     estimated scf accuracy    <       0.00038708 Ry

     iteration #  7     ecut=   110.00 Ry     beta= 0.70
     Davidson diagonalization with overlap
     ethr =  1.76E-06,  avg # of iterations =  1.0

     total cpu time spent up to now is       48.5 secs

     total energy              =    -344.00828752 Ry
     estimated scf accuracy    <       0.00019490 Ry

     iteration #  8     ecut=   110.00 Ry     beta= 0.70
     Davidson diagonalization with overlap
     ethr =  8.86E-07,  avg # of iterations =  1.5

     total cpu time spent up to now is       54.2 secs

     End of self-consistent calculation

          k = 0.0000 0.0000 0.0000 (  4169 PWs)   bands (ev):

   -92.4403 -52.8158 -52.8158 -52.8158  -0.5140   8.2756   8.2756   9.2847
     9.2847   9.2847  12.6658  12.6658  12.6658  16.3982  17.1098

          k = 0.0000 0.0000 0.0833 (  4200 PWs)   bands (ev):

   -92.4403 -52.8163 -52.8158 -52.8158  -0.4167   8.2252   8.2958   9.2294
     9.2294   9.2888  11.8889  12.8091  12.8091  16.6534  17.1303

          k = 0.0000 0.0000 0.1667 (  4188 PWs)   bands (ev):

   -92.4402 -52.8174 -52.8157 -52.8157  -0.1273   7.9521   8.3516   9.0925
     9.0925   9.3001  10.6648  13.2093  13.2093  16.9046  17.1903

          k = 0.0000 0.0000 0.2500 (  4196 PWs)   bands (ev):

   -92.4402 -52.8189 -52.8156 -52.8156   0.3446   7.1593   8.4293   8.9302
     8.9302   9.3156   9.9625  13.8041  13.8041  17.2491  17.2832

          k = 0.0000 0.0000 0.3333 (  4200 PWs)   bands (ev):

   -92.4401 -52.8204 -52.8155 -52.8155   0.9738   5.9811   8.5089   8.7882
     8.7882   9.3311   9.7900  14.5241  14.5241  17.3921  17.7283

          k = 0.0000 0.0000 0.4167 (  4192 PWs)   bands (ev):

   -92.4400 -52.8215 -52.8154 -52.8154   1.6758   4.8568   8.5684   8.6939
     8.6939   9.3425   9.7933  15.2485  15.2485  17.4853  18.3151

          k = 0.0000 0.0000-0.5000 (  4220 PWs)   bands (ev):

   -92.4400 -52.8219 -52.8154 -52.8154   2.0848   4.2967   8.5905   8.6610
     8.6610   9.3467   9.8080  15.6225  15.6225  17.5230  18.5428

          k = 0.0000 0.0833 0.0833 (  4204 PWs)   bands (ev):

   -92.4403 -52.8162 -52.8162 -52.8158  -0.3197   8.2224   8.2762   9.1643
     9.2090   9.2626  11.9688  12.0795  12.9462  16.9094  17.8443

          k = 0.0000 0.0833 0.1667 (  4191 PWs)   bands (ev):

   -92.4402 -52.8173 -52.8161 -52.8157  -0.0315   7.9842   8.3176   9.0146
     9.0919   9.2641  10.7842  12.3942  13.3307  17.0914  18.0940

          k = 0.0000 0.0833 0.2500 (  4188 PWs)   bands (ev):

   -92.4401 -52.8189 -52.8160 -52.8156   0.4383   7.2158   8.3974   8.8749
     8.9387   9.2809  10.0363  12.9337  13.9044  17.3184  18.3426

          k = 0.0000 0.0833 0.3333 (  4193 PWs)   bands (ev):

   -92.4401 -52.8204 -52.8159 -52.8155   1.0639   6.0585   8.4822   8.7621
     8.8024   9.2989   9.8159  13.5891  14.5983  17.5591  18.6860

          k = 0.0000 0.0833 0.4167 (  4191 PWs)   bands (ev):

   -92.4400 -52.8215 -52.8158 -52.8154   1.7599   4.9484   8.5538   8.6723
     8.7111   9.3123   9.7973  14.2563  15.2894  17.6195  18.1162

          k = 0.0000 0.0833-0.5000 (  4192 PWs)   bands (ev):

   -92.4400 -52.8219 -52.8158 -52.8154   2.1628   4.3967   8.6069   8.6129
     8.6793   9.3172   9.8063  14.6048  15.6385  17.3122  18.0002

          k = 0.0000 0.1667 0.1667 (  4176 PWs)   bands (ev):

   -92.4402 -52.8173 -52.8172 -52.8156   0.2531   8.0504   8.1088   8.8694
     9.0620   9.2018  11.0955  11.1083  13.6737  17.2436  19.8760

          k = 0.0000 0.1667 0.2500 (  4186 PWs)   bands (ev):

   -92.4401 -52.8188 -52.8171 -52.8155   0.7163   7.3701   8.1954   8.7944
     8.9574   9.1955  10.2266  11.5667  14.1884  17.4135  18.9296

          k = 0.0000 0.1667 0.3333 (  4195 PWs)   bands (ev):

   -92.4400 -52.8203 -52.8170 -52.8154   1.3306   6.2812   8.3169   8.7422
     8.8408   9.2147   9.8841  12.1462  14.8062  17.0518  18.1735

          k = 0.0000 0.1667 0.4167 (  4204 PWs)   bands (ev):

   -92.4400 -52.8214 -52.8169 -52.8153   2.0076   5.2184   8.4154   8.6797
     8.7588   9.2322   9.8064  12.7688  15.4012  16.0370  18.3310

          k = 0.0000 0.1667-0.5000 (  4222 PWs)   bands (ev):

   -92.4399 -52.8218 -52.8169 -52.8153   2.3920   4.6931   8.4591   8.6459
     8.7297   9.2390   9.7994  13.1148  15.5258  15.6846  18.4520

          k = 0.0000 0.2500 0.2500 (  4214 PWs)   bands (ev):

   -92.4400 -52.8187 -52.8186 -52.8154   1.1671   7.4543   7.7485   8.7769
     8.9543   9.1175  10.3422  10.7241  14.6120  16.8630  18.1734

          k = 0.0000 0.2500 0.3333 (  4201 PWs)   bands (ev):

   -92.4399 -52.8202 -52.8185 -52.8153   1.7605   6.6095   7.8956   8.7574
     8.8905   9.1096   9.9615  11.0227  15.1077  15.5443  18.4375

          k = 0.0000 0.2500 0.4167 (  4208 PWs)   bands (ev):

   -92.4399 -52.8213 -52.8184 -52.8152   2.4027   5.6492   8.0892   8.7055
     8.8248   9.1279   9.8102  11.5209  14.3994  15.5571  18.8213

          k = 0.0000 0.2500-0.5000 (  4200 PWs)   bands (ev):

   -92.4399 -52.8217 -52.8184 -52.8152   2.7548   5.1741   8.1704   8.6721
     8.7998   9.1365   9.7817  11.8330  13.8636  15.7546  19.0151

          k = 0.0000 0.3333 0.3333 (  4220 PWs)   bands (ev):

   -92.4399 -52.8200 -52.8200 -52.8152   2.3186   6.8006   7.3826   8.7434
     8.9202   9.0319   9.9182  10.5880  14.1239  15.4422  18.9284

          k = 0.0000 0.3333 0.4167 (  4213 PWs)   bands (ev):

   -92.4398 -52.8211 -52.8199 -52.8151   2.9040   6.1946   7.5642   8.6686
     8.8915   9.0295   9.7862  10.7408  13.0027  15.7214  19.4615

          k = 0.0000 0.3333-0.5000 (  4208 PWs)   bands (ev):

   -92.4398 -52.8215 -52.8199 -52.8151   3.2080   5.8117   7.7239   8.6102
     8.8716   9.0387   9.7458  10.9272  12.4961  15.8345  20.7164

          k = 0.0000 0.4167 0.4167 (  4210 PWs)   bands (ev):

   -92.4398 -52.8210 -52.8210 -52.8150   3.4047   6.6416   7.0926   8.5031
     8.9330   8.9685   9.7279  10.4620  11.9963  15.8508  20.1741

          k = 0.0000 0.4167-0.5000 (  4216 PWs)   bands (ev):

   -92.4398 -52.8214 -52.8210 -52.8150   3.6463   6.5296   7.2251   8.3457
     8.9253   8.9698   9.6984  10.4358  11.6032  15.9008  20.6077

          k = 0.0000-0.5000-0.5000 (  4196 PWs)   bands (ev):

   -92.4397 -52.8214 -52.8214 -52.8149   3.8490   6.9847   6.9847   8.0499
     8.9452   8.9452   9.6753  10.2876  11.3068  15.9270  21.2957

          k = 0.0833 0.0833 0.0833 (  4190 PWs)   bands (ev):

   -92.4402 -52.8162 -52.8162 -52.8162  -0.2231   8.2425   8.2425   9.1097
     9.2050   9.2050  12.0327  12.2135  12.2135  17.7358  18.1099

          k = 0.0833 0.0833 0.1667 (  4180 PWs)   bands (ev):

   -92.4402 -52.8173 -52.8161 -52.8161   0.0640   8.0135   8.2981   8.9683
     9.0642   9.2187  10.8963  12.4372  12.5826  18.0641  18.2102

          k = 0.0833 0.0833 0.2500 (  4196 PWs)   bands (ev):

   -92.4401 -52.8188 -52.8160 -52.8160   0.5317   7.2715   8.3756   8.8651
     8.8999   9.2410  10.1105  12.9413  13.1219  18.3610  18.3851

          k = 0.0833 0.0833 0.3333 (  4204 PWs)   bands (ev):

   -92.4400 -52.8203 -52.8159 -52.8159   1.1538   6.1352   8.4551   8.7572
     8.8005   9.2632   9.8453  13.5715  13.7628  18.5015  18.5205

          k = 0.0833 0.0833 0.4167 (  4196 PWs)   bands (ev):

   -92.4400 -52.8215 -52.8158 -52.8158   1.8439   5.0392   8.5161   8.6612
     8.7472   9.2793   9.8039  14.2326  14.3886  17.6784  18.1888

          k = 0.0833 0.0833-0.5000 (  4210 PWs)   bands (ev):

   -92.4400 -52.8219 -52.8158 -52.8158   2.2411   4.4955   8.5408   8.6256
     8.7258   9.2852   9.8068  14.5892  14.6967  17.1797  17.7864

          k = 0.0833 0.1667 0.1667 (  4192 PWs)   bands (ev):

   -92.4401 -52.8172 -52.8172 -52.8160   0.3475   8.0664   8.1356   8.8328
     9.0243   9.1446  11.1778  11.2247  12.8368  18.2647  19.8526

          k = 0.0833 0.1667 0.2500 (  4200 PWs)   bands (ev):

   -92.4401 -52.8187 -52.8171 -52.8159   0.8087   7.4236   8.2023   8.7880
     8.9057   9.1485  10.3044  11.6456  13.3174  18.2261  19.2190

          k = 0.0833 0.1667 0.3333 (  4198 PWs)   bands (ev):

   -92.4400 -52.8203 -52.8170 -52.8158   1.4199   6.3556   8.2973   8.7542
     8.8279   9.1740   9.9233  12.2055  13.9039  17.2285  19.1356

          k = 0.0833 0.1667 0.4167 (  4207 PWs)   bands (ev):

   -92.4399 -52.8214 -52.8169 -52.8157   2.0916   5.3062   8.3594   8.6912
     8.8090   9.1941   9.8197  12.8075  14.4846  16.1348  18.3579

          k = 0.0833 0.1667-0.5000 (  4218 PWs)   bands (ev):

   -92.4399 -52.8218 -52.8169 -52.8157   2.4711   4.7881   8.3789   8.6708
     8.7987   9.2018   9.8052  13.1388  14.7709  15.6261  17.9197

          k = 0.0833 0.2500 0.2500 (  4206 PWs)   bands (ev):

   -92.4400 -52.8186 -52.8186 -52.8158   1.2578   7.5252   7.7527   8.7895
     8.8860   9.0826  10.4595  10.7437  13.7318  17.0291  19.1106

          k = 0.0833 0.2500 0.3333 (  4199 PWs)   bands (ev):

   -92.4399 -52.8201 -52.8185 -52.8157   1.8485   6.6806   7.8921   8.7736
     8.8691   9.0831  10.0208  11.0543  14.2366  15.6368  19.2833

          k = 0.0833 0.2500 0.4167 (  4211 PWs)   bands (ev):

   -92.4399 -52.8212 -52.8184 -52.8156   2.4866   5.7308   8.0470   8.7208
     8.8828   9.0971   9.8339  11.5397  14.4925  14.7229  18.8100

          k = 0.0833 0.2500-0.5000 (  4214 PWs)   bands (ev):

   -92.4399 -52.8216 -52.8184 -52.8156   2.8354   5.2612   8.1030   8.7023
     8.8824   9.1037   9.7942  11.8368  13.9698  14.9481  18.4625

          k = 0.0833 0.3333 0.3333 (  4210 PWs)   bands (ev):

   -92.4399 -52.8200 -52.8200 -52.8156   2.4050   6.8793   7.3762   8.7385
     8.9187   9.0486   9.9956  10.5671  14.2020  14.6367  19.3960

          k = 0.0833 0.3333 0.4167 (  4220 PWs)   bands (ev):

   -92.4398 -52.8211 -52.8199 -52.8155   2.9885   6.2642   7.5469   8.6668
     8.9553   9.0475   9.8214  10.7183  13.0826  14.9937  19.3017

          k = 0.0833 0.3333-0.5000 (  4220 PWs)   bands (ev):

   -92.4398 -52.8215 -52.8199 -52.8155   3.2913   5.8827   7.6828   8.6300
     8.9634   9.0496   9.7630  10.8991  12.5823  15.1497  19.1515

          k = 0.0833 0.4167 0.4167 (  4208 PWs)   bands (ev):

   -92.4398 -52.8210 -52.8210 -52.8154   3.4907   6.6959   7.0815   8.5069
     9.0074   9.0428   9.7534  10.4099  12.0554  15.2248  19.6911

          k = 0.0833 0.4167-0.5000 (  4208 PWs)   bands (ev):

   -92.4397 -52.8214 -52.8210 -52.8154   3.7339   6.5662   7.2063   8.3821
     9.0231   9.0448   9.7092  10.3797  11.6498  15.3193  19.8444

          k = 0.0833-0.5000-0.5000 (  4212 PWs)   bands (ev):

   -92.4397 -52.8214 -52.8214 -52.8153   3.9396   6.9726   6.9726   8.1432
     9.0453   9.0453   9.6765  10.2212  11.3298  15.3876  20.1922

          k = 0.1667 0.1667 0.1667 (  4211 PWs)   bands (ev):

   -92.4401 -52.8172 -52.8171 -52.8171   0.6278   8.1077   8.1077   8.6705
     9.0148   9.0148  11.3159  11.5738  11.5738  19.3232  20.3774

          k = 0.1667 0.1667 0.2500 (  4200 PWs)   bands (ev):

   -92.4400 -52.8186 -52.8170 -52.8170   1.0828   7.5651   8.1565   8.6679
     8.8819   9.0515  10.5045  11.7374  12.0802  18.4262  19.4273

          k = 0.1667 0.1667 0.3333 (  4205 PWs)   bands (ev):

   -92.4399 -52.8202 -52.8169 -52.8169   1.6838   6.5677   8.1910   8.7894
     8.7983   9.0881  10.0257  12.1757  12.6922  17.2003  17.9767

          k = 0.1667 0.1667 0.4167 (  4212 PWs)   bands (ev):

   -92.4399 -52.8213 -52.8168 -52.8168   2.3391   5.5631   8.2028   8.7466
     8.8968   9.1048   9.8532  12.6633  13.3161  16.1596  16.8424

          k = 0.1667 0.1667-0.5000 (  4248 PWs)   bands (ev):

   -92.4399 -52.8217 -52.8168 -52.8168   2.7037   5.0679   8.2036   8.7363
     8.9290   9.1078   9.8170  12.9249  13.6421  15.7038  16.3452

          k = 0.1667 0.2500 0.2500 (  4201 PWs)   bands (ev):

   -92.4399 -52.8185 -52.8185 -52.8169   1.5266   7.7102   7.7603   8.6285
     8.8741   9.0141  10.7789  10.7924  12.3277  17.2272  19.0881

          k = 0.1667 0.2500 0.3333 (  4213 PWs)   bands (ev):

   -92.4399 -52.8200 -52.8184 -52.8168   2.1089   6.8761   7.8704   8.7415
     8.8557   9.0527  10.1662  11.1449  12.8331  15.8697  18.0301

          k = 0.1667 0.2500 0.4167 (  4219 PWs)   bands (ev):

   -92.4398 -52.8211 -52.8183 -52.8167   2.7344   5.9652   7.9321   8.7869
     8.9483   9.0794   9.8951  11.5523  13.3735  14.7762  17.0135

          k = 0.1667 0.2500-0.5000 (  4218 PWs)   bands (ev):

   -92.4398 -52.8215 -52.8183 -52.8167   3.0730   5.5139   7.9478   8.7903
     9.0226   9.0694   9.8238  11.7816  13.6732  14.2796  16.5747

          k = 0.1667 0.3333 0.3333 (  4226 PWs)   bands (ev):

   -92.4398 -52.8199 -52.8199 -52.8167   2.6605   7.0934   7.3582   8.6924
     8.9532   9.0898  10.2351  10.4861  13.2269  14.4829  18.1752

          k = 0.1667 0.3333 0.4167 (  4221 PWs)   bands (ev):

   -92.4398 -52.8210 -52.8198 -52.8166   3.2381   6.4544   7.5012   8.6901
     9.0485   9.1549   9.9262  10.6392  13.2498  13.7925  17.5620

          k = 0.1667 0.3333-0.5000 (  4208 PWs)   bands (ev):

   -92.4397 -52.8214 -52.8198 -52.8166   3.5378   6.0810   7.5832   8.6994
     9.0839   9.1992   9.8107  10.7868  12.8410  13.9398  17.2150

          k = 0.1667 0.4167 0.4167 (  4219 PWs)   bands (ev):

   -92.4397 -52.8209 -52.8209 -52.8165   3.7458   6.8321   7.0534   8.5750
     9.1858   9.2286   9.8626  10.2256  12.2288  14.0642  18.0116

          k = 0.1667 0.4167-0.5000 (  4218 PWs)   bands (ev):

   -92.4397 -52.8213 -52.8209 -52.8165   3.9942   6.6550   7.1597   8.5233
     9.2322   9.2989   9.7524  10.1884  11.7988  14.2077  17.8993

          k = 0.1667-0.5000-0.5000 (  4204 PWs)   bands (ev):

   -92.4397 -52.8213 -52.8213 -52.8164   4.2099   6.9421   6.9421   8.4101
     9.3408   9.3408   9.6798   9.9931  11.4042  14.3276  18.2624

          k = 0.2500 0.2500 0.2500 (  4212 PWs)   bands (ev):

   -92.4399 -52.8184 -52.8184 -52.8184   1.9609   7.7617   7.7617   8.3920
     8.9607   8.9607  10.7825  11.2566  11.2566  17.0204  18.2171

          k = 0.2500 0.2500 0.3333 (  4221 PWs)   bands (ev):

   -92.4398 -52.8199 -52.8183 -52.8183   2.5280   7.1313   7.7534   8.6029
     8.9371   9.0702  10.3132  11.1194  11.8656  15.9731  16.7142

          k = 0.2500 0.2500 0.4167 (  4223 PWs)   bands (ev):

   -92.4398 -52.8210 -52.8182 -52.8182   3.1311   6.3158   7.7421   8.8487
     8.9331   9.2028   9.9684  11.2522  12.5449  15.0559  15.4931

          k = 0.2500 0.2500-0.5000 (  4210 PWs)   bands (ev):

   -92.4397 -52.8214 -52.8182 -52.8182   3.4520   5.9022   7.7370   8.9278
     8.9338   9.2848   9.8567  11.3331  12.9563  14.6897  14.9000

          k = 0.2500 0.3333 0.3333 (  4230 PWs)   bands (ev):

   -92.4397 -52.8198 -52.8198 -52.8182   3.0712   7.3328   7.3359   8.6373
     9.0434   9.1382  10.2837  10.6500  12.0262  14.8791  16.6881

          k = 0.2500 0.3333 0.4167 (  4218 PWs)   bands (ev):

   -92.4397 -52.8209 -52.8197 -52.8181   3.6393   6.7016   7.4285   8.7948
     9.1162   9.3235   9.9937  10.5493  12.5361  13.8394  15.8666

          k = 0.2500 0.3333-0.5000 (  4214 PWs)   bands (ev):

   -92.4397 -52.8213 -52.8197 -52.8180   3.9339   6.3575   7.4517   8.8547
     9.1384   9.4724   9.8820  10.5172  12.9774  13.2670  15.4330

          k = 0.2500 0.4167 0.4167 (  4212 PWs)   bands (ev):

   -92.4396 -52.8208 -52.8208 -52.8180   4.1585   6.9747   7.0187   8.7984
     9.4021   9.4027   9.8380  10.1703  12.4127  13.1604  16.3554

          k = 0.2500 0.4167-0.5000 (  4202 PWs)   bands (ev):

   -92.4396 -52.8212 -52.8208 -52.8180   4.4184   6.7482   7.1022   8.8159
     9.4313   9.5626   9.8813   9.9495  12.0743  13.2226  16.1281

          k = 0.2500-0.5000-0.5000 (  4216 PWs)   bands (ev):

   -92.4396 -52.8212 -52.8212 -52.8179   4.6553   6.9054   6.9054   8.8062
     9.5287   9.6843   9.8232   9.8232  11.5497  13.3637  16.5109

          k = 0.3333 0.3333 0.3333 (  4212 PWs)   bands (ev):

   -92.4397 -52.8197 -52.8197 -52.8197   3.6027   7.3067   7.3067   8.7781
     9.1801   9.1801   9.9260  11.2432  11.2432  15.0795  15.7418

          k = 0.3333 0.3333 0.4167 (  4214 PWs)   bands (ev):

   -92.4396 -52.8208 -52.8196 -52.8196   4.1582   6.9049   7.2874   9.0476
     9.2077   9.4476   9.6547  10.7186  11.9888  14.3618  14.4272

          k = 0.3333 0.3333-0.5000 (  4208 PWs)   bands (ev):

   -92.4396 -52.8212 -52.8196 -52.8195   4.4467   6.6286   7.2803   9.1291
     9.2173   9.4429   9.9821  10.2932  12.5712  13.6550  14.0483

          k = 0.3333 0.4167 0.4167 (  4216 PWs)   bands (ev):

   -92.4396 -52.8207 -52.8207 -52.8195   4.7007   6.9872   7.0377   9.1386
     9.2269   9.4879   9.6983  10.7460  12.0581  13.2738  14.9272

          k = 0.3333 0.4167-0.5000 (  4218 PWs)   bands (ev):

   -92.4396 -52.8211 -52.8206 -52.8195   4.9841   6.8114   7.0414   8.9989
     9.2227   9.5404  10.1914  10.4124  12.4865  12.6134  14.5665

          k = 0.3333-0.5000-0.5000 (  4220 PWs)   bands (ev):

   -92.4395 -52.8210 -52.8210 -52.8194   5.2667   6.8728   6.8728   8.7894
     9.2391   9.6889  10.4864  10.4864  11.8022  12.7322  14.9417

          k = 0.4167 0.4167 0.4167 (  4191 PWs)   bands (ev):

   -92.4395 -52.8206 -52.8206 -52.8206   5.2907   6.9657   6.9657   8.5252
     9.5223   9.5223  10.1644  11.5439  11.5439  13.7697  13.7697

          k = 0.4167 0.4167-0.5000 (  4216 PWs)   bands (ev):

   -92.4395 -52.8210 -52.8205 -52.8205   5.6251   6.8423   6.9581   8.2493
     9.5319   9.6077  10.7534  11.0192  12.3833  12.7407  13.4920

          k = 0.4167-0.5000-0.5000 (  4232 PWs)   bands (ev):

   -92.4395 -52.8209 -52.8209 -52.8205   6.0278   6.8509   6.8509   7.8707
     9.5717   9.6922  11.3289  11.3290  12.1585  12.4186  13.5557

          k =-0.5000-0.5000-0.5000 (  4224 PWs)   bands (ev):

   -92.4395 -52.8209 -52.8209 -52.8209   6.8432   6.8432   6.8432   6.9872
     9.6934   9.6934  12.3276  12.3276  12.3276  12.3758  12.3758

     the Fermi energy is    10.4240 ev

!    total energy              =    -344.00830794 Ry
     estimated scf accuracy    <       0.00000058 Ry
     smearing contrib. (-TS)   =       0.00137808 Ry
     internal energy E=F+TS    =    -344.00968602 Ry

     The total energy is F=E-TS. E is the sum of the following terms:
     one-electron contribution =    -254.83907245 Ry
     hartree contribution      =     136.62070916 Ry
     xc contribution           =     -45.76466895 Ry
     ewald contribution        =    -180.02665378 Ry

     convergence has been achieved in   8 iterations

     Forces acting on atoms (cartesian axes, Ry/au):

     atom    1 type  1   force =     0.00000000    0.00000000    0.00000000
     atom    2 type  2   force =     0.00000000    0.00000000    0.00000000

     Total force =     0.000000     Total SCF correction =     0.000000


     Computing stress (Cartesian axis) and pressure

          total   stress  (Ry/bohr**3)                   (kbar)     P=     -262.76
  -0.00178619   0.00000000   0.00000000         -262.76        0.00        0.00
   0.00000000  -0.00178619   0.00000000            0.00     -262.76        0.00
   0.00000000   0.00000000  -0.00178619            0.00        0.00     -262.76


     Writing all to output data dir ./tmp/SiNi.save/ :
     XML data file, charge density, pseudopotentials, collected wavefunctions

     init_run     :      2.29s CPU      2.39s WALL (       1 calls)
     electrons    :     50.57s CPU     51.79s WALL (       1 calls)
     forces       :      0.79s CPU      0.80s WALL (       1 calls)
     stress       :      3.29s CPU      3.34s WALL (       1 calls)

     Called by init_run:
     wfcinit      :      2.05s CPU      2.13s WALL (       1 calls)
     potinit      :      0.07s CPU      0.08s WALL (       1 calls)
     hinit0       :      0.14s CPU      0.14s WALL (       1 calls)

     Called by electrons:
     c_bands      :     44.14s CPU     45.20s WALL (       8 calls)
     sum_band     :      6.21s CPU      6.37s WALL (       8 calls)
     v_of_rho     :      0.20s CPU      0.22s WALL (       9 calls)
     mix_rho      :      0.02s CPU      0.03s WALL (       8 calls)

     Called by c_bands:
     init_us_2    :      1.33s CPU      1.42s WALL (    1596 calls)
     cegterg      :     42.04s CPU     43.01s WALL (     672 calls)

     Called by *egterg:
     cdiaghg      :      0.31s CPU      0.33s WALL (    2338 calls)
     h_psi        :     34.89s CPU     35.81s WALL (    2422 calls)
     g_psi        :      0.17s CPU      0.18s WALL (    1666 calls)

     Called by h_psi:
     h_psi:calbec :      3.47s CPU      3.51s WALL (    2422 calls)
     vloc_psi     :     28.07s CPU     28.90s WALL (    2422 calls)
                                        0.00s GPU  (    2422 calls)
     add_vuspsi   :      3.16s CPU      3.19s WALL (    2422 calls)

     General routines
     calbec       :      6.28s CPU      6.35s WALL (    3850 calls)
     fft          :      0.10s CPU      0.10s WALL (     114 calls)
     ffts         :      0.01s CPU      0.01s WALL (       8 calls)
     fftw         :     30.00s CPU     30.89s WALL (   61190 calls)


     PWSCF        :     57.00s CPU     58.46s WALL


   This run was terminated on:  19: 9: 8   7Jan2026            

=------------------------------------------------------------------------------=
   JOB DONE.
=------------------------------------------------------------------------------=
