
     Program PWSCF v.7.5 starts on  7Jan2026 at 19: 6:37 

     This program is part of the open-source Quantum ESPRESSO suite
     for quantum simulation of materials; please cite
         "P. Giannozzi et al., J. Phys.:Condens. Matter 21 395502 (2009);
         "P. Giannozzi et al., J. Phys.:Condens. Matter 29 465901 (2017);
         "P. Giannozzi et al., J. Chem. Phys. 152 154105 (2020);
          URL http://www.quantum-espresso.org", 
     in publications or presentations arising from this work. More details at
     http://www.quantum-espresso.org/quote

     Serial version
     1023 MiB available memory on the printing compute node when the environment starts

     Waiting for input...
     Reading input from standard input

     Current dimensions of program PWSCF are:
     Max number of different atomic species (ntypx) = 10
     Max number of k-points (npk) =  40000
     Max angular momentum in pseudopotentials (lmaxx) =  4


     G-vector sticks info
     --------------------
     sticks:   dense  smooth     PW     G-vecs:    dense   smooth      PW
     Sum        1265    1265    373                33641    33641    5449

     Using Slab Decomposition



     bravais-lattice index     =            1
     lattice parameter (alat)  =       6.0000  a.u.
     unit-cell volume          =     216.0000 (a.u.)^3
     number of atoms/cell      =            2
     number of atomic types    =            2
     number of electrons       =        22.00
     number of Kohn-Sham states=           15
     kinetic-energy cutoff     =     110.0000  Ry
     charge density cutoff     =     440.0000  Ry
     scf convergence threshold =      1.0E-06
     mixing beta               =       0.7000
     number of iterations used =            8  plain     mixing
     Exchange-correlation= PBE
                           (   1   4   3   4   0   0   0)

     celldm(1)=   6.000000  celldm(2)=   0.000000  celldm(3)=   0.000000
     celldm(4)=   0.000000  celldm(5)=   0.000000  celldm(6)=   0.000000

     crystal axes: (cart. coord. in units of alat)
               a(1) = (   1.000000   0.000000   0.000000 )  
               a(2) = (   0.000000   1.000000   0.000000 )  
               a(3) = (   0.000000   0.000000   1.000000 )  

     reciprocal axes: (cart. coord. in units 2 pi/alat)
               b(1) = (  1.000000  0.000000  0.000000 )  
               b(2) = (  0.000000  1.000000  0.000000 )  
               b(3) = (  0.000000  0.000000  1.000000 )  


     PseudoPot. # 1 for Si read from file:
     ./PSEUDO/Si.upf
     MD5 check sum: 02fab3f35e82123ef5bf1cb05d5b1a5e
     Pseudo is Norm-conserving + core correction, Zval =  4.0
     Generated using ONCVPSP code by D. R. Hamann
     Using radial grid of 1510 points,  6 beta functions with: 
                l(1) =   0
                l(2) =   0
                l(3) =   1
                l(4) =   1
                l(5) =   2
                l(6) =   2

     PseudoPot. # 2 for Ni read from file:
     ./PSEUDO/Ni.upf
     MD5 check sum: 2b0a79d100e227970886d6963e34175b
     Pseudo is Norm-conserving + core correction, Zval = 18.0
     Generated using ONCVPSP code by D. R. Hamann
     Using radial grid of 1372 points,  6 beta functions with: 
                l(1) =   0
                l(2) =   0
                l(3) =   1
                l(4) =   1
                l(5) =   2
                l(6) =   2

     atomic species   valence    mass     pseudopotential
     Si                4.00    28.08550     Si( 1.00)
     Ni               18.00    58.69340     Ni( 1.00)

     48 Sym. Ops., with inversion, found



   Cartesian axes

     site n.     atom                  positions (alat units)
         1        Si     tau(   1) = (   0.0000000   0.0000000   0.0000000  )
         2        Ni     tau(   2) = (   0.5000000   0.5000000   0.5000000  )

     number of k points=    10  Methfessel-Paxton smearing, width (Ry)=  0.0400
                       cart. coord. in units 2pi/alat
        k(    1) = (   0.0000000   0.0000000   0.0000000), wk =   0.0312500
        k(    2) = (   0.0000000   0.0000000   0.2500000), wk =   0.1875000
        k(    3) = (   0.0000000   0.0000000  -0.5000000), wk =   0.0937500
        k(    4) = (   0.0000000   0.2500000   0.2500000), wk =   0.3750000
        k(    5) = (   0.0000000   0.2500000  -0.5000000), wk =   0.3750000
        k(    6) = (   0.0000000  -0.5000000  -0.5000000), wk =   0.0937500
        k(    7) = (   0.2500000   0.2500000   0.2500000), wk =   0.2500000
        k(    8) = (   0.2500000   0.2500000  -0.5000000), wk =   0.3750000
        k(    9) = (   0.2500000  -0.5000000  -0.5000000), wk =   0.1875000
        k(   10) = (  -0.5000000  -0.5000000  -0.5000000), wk =   0.0312500

     Dense  grid:    33641 G-vectors     FFT dimensions: (  45,  45,  45)

     Estimated max dynamical RAM per process >      41.45 MB

     Initial potential from superposition of free atoms

     starting charge      21.9992, renormalised to      22.0000
     Starting wfcs are   14 randomized atomic wfcs +    1 random wfcs

     total cpu time spent up to now is        0.5 secs

     Self-consistent Calculation

     iteration #  1     ecut=   110.00 Ry     beta= 0.70
     Davidson diagonalization with overlap
     ethr =  1.00E-02,  avg # of iterations =  3.3

     total cpu time spent up to now is        1.3 secs

     total energy              =    -343.58984753 Ry
     estimated scf accuracy    <       0.59358626 Ry

     iteration #  2     ecut=   110.00 Ry     beta= 0.70
     Davidson diagonalization with overlap
     ethr =  2.70E-03,  avg # of iterations =  3.4

     total cpu time spent up to now is        2.3 secs

     total energy              =    -342.44585014 Ry
     estimated scf accuracy    <      16.28341874 Ry

     iteration #  3     ecut=   110.00 Ry     beta= 0.70
     Davidson diagonalization with overlap
     ethr =  2.70E-03,  avg # of iterations =  3.3

     total cpu time spent up to now is        3.2 secs

     total energy              =    -344.00640915 Ry
     estimated scf accuracy    <       0.03579590 Ry

     iteration #  4     ecut=   110.00 Ry     beta= 0.70
     Davidson diagonalization with overlap
     ethr =  1.63E-04,  avg # of iterations =  1.8

     total cpu time spent up to now is        3.9 secs

     total energy              =    -344.00057643 Ry
     estimated scf accuracy    <       0.03198686 Ry

     iteration #  5     ecut=   110.00 Ry     beta= 0.70
     Davidson diagonalization with overlap
     ethr =  1.45E-04,  avg # of iterations =  1.1

     total cpu time spent up to now is        4.5 secs

     total energy              =    -344.00393261 Ry
     estimated scf accuracy    <       0.00050897 Ry

     iteration #  6     ecut=   110.00 Ry     beta= 0.70
     Davidson diagonalization with overlap
     ethr =  2.31E-06,  avg # of iterations =  4.4

     total cpu time spent up to now is        5.4 secs

     total energy              =    -344.00399722 Ry
     estimated scf accuracy    <       0.00019879 Ry

     iteration #  7     ecut=   110.00 Ry     beta= 0.70
     Davidson diagonalization with overlap
     ethr =  9.04E-07,  avg # of iterations =  1.0

     total cpu time spent up to now is        6.0 secs

     total energy              =    -344.00395896 Ry
     estimated scf accuracy    <       0.00012907 Ry

     iteration #  8     ecut=   110.00 Ry     beta= 0.70
     Davidson diagonalization with overlap
     ethr =  5.87E-07,  avg # of iterations =  2.0

     total cpu time spent up to now is        6.8 secs

     total energy              =    -344.00397774 Ry
     estimated scf accuracy    <       0.00000642 Ry

     iteration #  9     ecut=   110.00 Ry     beta= 0.70
     Davidson diagonalization with overlap
     ethr =  2.92E-08,  avg # of iterations =  1.9

     total cpu time spent up to now is        7.6 secs

     total energy              =    -344.00397916 Ry
     estimated scf accuracy    <       0.00000324 Ry

     iteration # 10     ecut=   110.00 Ry     beta= 0.70
     Davidson diagonalization with overlap
     ethr =  1.47E-08,  avg # of iterations =  1.0

     total cpu time spent up to now is        8.3 secs

     End of self-consistent calculation

          k = 0.0000 0.0000 0.0000 (  4169 PWs)   bands (ev):

   -92.4472 -52.8223 -52.8223 -52.8223  -0.5215   8.2721   8.2721   9.2815
     9.2815   9.2815  12.6557  12.6557  12.6557  16.3912  17.1033

          k = 0.0000 0.0000 0.2500 (  4196 PWs)   bands (ev):

   -92.4471 -52.8253 -52.8221 -52.8221   0.3367   7.1545   8.4257   8.9267
     8.9267   9.3124   9.9559  13.7936  13.7936  17.2425  17.2766

          k = 0.0000 0.0000-0.5000 (  4220 PWs)   bands (ev):

   -92.4469 -52.8284 -52.8218 -52.8218   2.0739   4.2940   8.5867   8.6575
     8.6575   9.3435   9.8024  15.6084  15.6084  17.5161  18.5399

          k = 0.0000 0.2500 0.2500 (  4214 PWs)   bands (ev):

   -92.4469 -52.8251 -52.8251 -52.8218   1.1586   7.4497   7.7440   8.7731
     8.9509   9.1144  10.3351  10.7175  14.6002  16.8572  18.1674

          k = 0.0000 0.2500-0.5000 (  4200 PWs)   bands (ev):

   -92.4468 -52.8281 -52.8248 -52.8216   2.7436   5.1710   8.1659   8.6683
     8.7966   9.1334   9.7760  11.8237  13.8612  15.7395  19.8106

          k = 0.0000-0.5000-0.5000 (  4196 PWs)   bands (ev):

   -92.4466 -52.8278 -52.8278 -52.8214   3.8369   6.9789   6.9789   8.0483
     8.9422   8.9422   9.6698  10.2810  11.3048  15.9107  21.2847

          k = 0.2500 0.2500 0.2500 (  4212 PWs)   bands (ev):

   -92.4468 -52.8249 -52.8248 -52.8248   1.9519   7.7572   7.7572   8.3881
     8.9570   8.9570  10.7742  11.2497  11.2497  17.0131  18.2127

          k = 0.2500 0.2500-0.5000 (  4210 PWs)   bands (ev):

   -92.4466 -52.8278 -52.8246 -52.8246   3.4407   5.8984   7.7325   8.9250
     8.9298   9.2815   9.8513  11.3215  12.9468  14.6861  14.8987

          k = 0.2500-0.5000-0.5000 (  4216 PWs)   bands (ev):

   -92.4465 -52.8276 -52.8276 -52.8244   4.6432   6.9000   6.9000   8.8032
     9.5198   9.6788   9.8197   9.8197  11.5488  13.3520  16.5067

          k =-0.5000-0.5000-0.5000 (  4224 PWs)   bands (ev):

   -92.4464 -52.8273 -52.8273 -52.8273   6.8381   6.8381   6.8381   6.9687
     9.6878   9.6878  12.3191  12.3191  12.3191  12.3764  12.3764

     the Fermi energy is    10.5086 ev

!    total energy              =    -344.00397907 Ry
     estimated scf accuracy    <       0.00000030 Ry
     smearing contrib. (-TS)   =       0.00347588 Ry
     internal energy E=F+TS    =    -344.00745494 Ry

     The total energy is F=E-TS. E is the sum of the following terms:
     one-electron contribution =    -254.81356570 Ry
     hartree contribution      =     136.59225100 Ry
     xc contribution           =     -45.75948647 Ry
     ewald contribution        =    -180.02665378 Ry

     convergence has been achieved in  10 iterations

     Forces acting on atoms (cartesian axes, Ry/au):

     atom    1 type  1   force =     0.00000000    0.00000000    0.00000000
     atom    2 type  2   force =     0.00000000    0.00000000    0.00000000

     Total force =     0.000000     Total SCF correction =     0.000000


     Computing stress (Cartesian axis) and pressure

          total   stress  (Ry/bohr**3)                   (kbar)     P=     -276.42
  -0.00187908   0.00000000   0.00000000         -276.42        0.00        0.00
   0.00000000  -0.00187908   0.00000000            0.00     -276.42        0.00
   0.00000000   0.00000000  -0.00187908            0.00        0.00     -276.42


     Writing all to output data dir ./tmp/SiNi.save/ :
     XML data file, charge density, pseudopotentials, collected wavefunctions

     init_run     :      0.43s CPU      0.46s WALL (       1 calls)
     electrons    :      7.59s CPU      7.79s WALL (       1 calls)
     forces       :      0.13s CPU      0.13s WALL (       1 calls)
     stress       :      0.46s CPU      0.49s WALL (       1 calls)

     Called by init_run:
     wfcinit      :      0.22s CPU      0.24s WALL (       1 calls)
     potinit      :      0.06s CPU      0.08s WALL (       1 calls)
     hinit0       :      0.13s CPU      0.13s WALL (       1 calls)

     Called by electrons:
     c_bands      :      6.37s CPU      6.52s WALL (      10 calls)
     sum_band     :      0.95s CPU      0.99s WALL (      10 calls)
     v_of_rho     :      0.25s CPU      0.26s WALL (      11 calls)
     mix_rho      :      0.04s CPU      0.04s WALL (      10 calls)

     Called by c_bands:
     init_us_2    :      0.19s CPU      0.20s WALL (     230 calls)
     cegterg      :      5.89s CPU      6.04s WALL (     100 calls)

     Called by *egterg:
     cdiaghg      :      0.04s CPU      0.04s WALL (     332 calls)
     h_psi        :      4.85s CPU      4.98s WALL (     342 calls)
     g_psi        :      0.02s CPU      0.02s WALL (     232 calls)

     Called by h_psi:
     h_psi:calbec :      0.48s CPU      0.49s WALL (     342 calls)
     vloc_psi     :      3.91s CPU      4.02s WALL (     342 calls)
                                        0.00s GPU  (     342 calls)
     add_vuspsi   :      0.43s CPU      0.44s WALL (     342 calls)

     General routines
     calbec       :      0.81s CPU      0.83s WALL (     512 calls)
     fft          :      0.12s CPU      0.13s WALL (     134 calls)
     ffts         :      0.01s CPU      0.01s WALL (      10 calls)
     fftw         :      4.22s CPU      4.34s WALL (    8856 calls)


     PWSCF        :      8.65s CPU      8.93s WALL


   This run was terminated on:  19: 6:46   7Jan2026            

=------------------------------------------------------------------------------=
   JOB DONE.
=------------------------------------------------------------------------------=
