
     Program PWSCF v.7.5 starts on  7Jan2026 at 19: 1:19 

     This program is part of the open-source Quantum ESPRESSO suite
     for quantum simulation of materials; please cite
         "P. Giannozzi et al., J. Phys.:Condens. Matter 21 395502 (2009);
         "P. Giannozzi et al., J. Phys.:Condens. Matter 29 465901 (2017);
         "P. Giannozzi et al., J. Chem. Phys. 152 154105 (2020);
          URL http://www.quantum-espresso.org", 
     in publications or presentations arising from this work. More details at
     http://www.quantum-espresso.org/quote

     Serial version
     444 MiB available memory on the printing compute node when the environment starts

     Waiting for input...
     Reading input from standard input

     Current dimensions of program PWSCF are:
     Max number of different atomic species (ntypx) = 10
     Max number of k-points (npk) =  40000
     Max angular momentum in pseudopotentials (lmaxx) =  4


     G-vector sticks info
     --------------------
     sticks:   dense  smooth     PW     G-vecs:    dense   smooth      PW
     Sum         225     225     89                 2553     2553     587

     Using Slab Decomposition



     bravais-lattice index     =            1
     lattice parameter (alat)  =       6.0000  a.u.
     unit-cell volume          =     216.0000 (a.u.)^3
     number of atoms/cell      =            2
     number of atomic types    =            2
     number of electrons       =        22.00
     number of Kohn-Sham states=           15
     kinetic-energy cutoff     =      20.0000  Ry
     charge density cutoff     =      80.0000  Ry
     scf convergence threshold =      1.0E-06
     mixing beta               =       0.7000
     number of iterations used =            8  plain     mixing
     Exchange-correlation= PBE
                           (   1   4   3   4   0   0   0)

     celldm(1)=   6.000000  celldm(2)=   0.000000  celldm(3)=   0.000000
     celldm(4)=   0.000000  celldm(5)=   0.000000  celldm(6)=   0.000000

     crystal axes: (cart. coord. in units of alat)
               a(1) = (   1.000000   0.000000   0.000000 )  
               a(2) = (   0.000000   1.000000   0.000000 )  
               a(3) = (   0.000000   0.000000   1.000000 )  

     reciprocal axes: (cart. coord. in units 2 pi/alat)
               b(1) = (  1.000000  0.000000  0.000000 )  
               b(2) = (  0.000000  1.000000  0.000000 )  
               b(3) = (  0.000000  0.000000  1.000000 )  


     PseudoPot. # 1 for Si read from file:
     ./PSEUDO/Si.upf
     MD5 check sum: 02fab3f35e82123ef5bf1cb05d5b1a5e
     Pseudo is Norm-conserving + core correction, Zval =  4.0
     Generated using ONCVPSP code by D. R. Hamann
     Using radial grid of 1510 points,  6 beta functions with: 
                l(1) =   0
                l(2) =   0
                l(3) =   1
                l(4) =   1
                l(5) =   2
                l(6) =   2

     PseudoPot. # 2 for Ni read from file:
     ./PSEUDO/Ni.upf
     MD5 check sum: 2b0a79d100e227970886d6963e34175b
     Pseudo is Norm-conserving + core correction, Zval = 18.0
     Generated using ONCVPSP code by D. R. Hamann
     Using radial grid of 1372 points,  6 beta functions with: 
                l(1) =   0
                l(2) =   0
                l(3) =   1
                l(4) =   1
                l(5) =   2
                l(6) =   2

     atomic species   valence    mass     pseudopotential
     Si                4.00    28.08550     Si( 1.00)
     Ni               18.00    58.69340     Ni( 1.00)

     48 Sym. Ops., with inversion, found



   Cartesian axes

     site n.     atom                  positions (alat units)
         1        Si     tau(   1) = (   0.0000000   0.0000000   0.0000000  )
         2        Ni     tau(   2) = (   0.5000000   0.5000000   0.5000000  )

     number of k points=    35  Methfessel-Paxton smearing, width (Ry)=  0.0400
                       cart. coord. in units 2pi/alat
        k(    1) = (   0.0000000   0.0000000   0.0000000), wk =   0.0039062
        k(    2) = (   0.0000000   0.0000000   0.1250000), wk =   0.0234375
        k(    3) = (   0.0000000   0.0000000   0.2500000), wk =   0.0234375
        k(    4) = (   0.0000000   0.0000000   0.3750000), wk =   0.0234375
        k(    5) = (   0.0000000   0.0000000  -0.5000000), wk =   0.0117188
        k(    6) = (   0.0000000   0.1250000   0.1250000), wk =   0.0468750
        k(    7) = (   0.0000000   0.1250000   0.2500000), wk =   0.0937500
        k(    8) = (   0.0000000   0.1250000   0.3750000), wk =   0.0937500
        k(    9) = (   0.0000000   0.1250000  -0.5000000), wk =   0.0468750
        k(   10) = (   0.0000000   0.2500000   0.2500000), wk =   0.0468750
        k(   11) = (   0.0000000   0.2500000   0.3750000), wk =   0.0937500
        k(   12) = (   0.0000000   0.2500000  -0.5000000), wk =   0.0468750
        k(   13) = (   0.0000000   0.3750000   0.3750000), wk =   0.0468750
        k(   14) = (   0.0000000   0.3750000  -0.5000000), wk =   0.0468750
        k(   15) = (   0.0000000  -0.5000000  -0.5000000), wk =   0.0117188
        k(   16) = (   0.1250000   0.1250000   0.1250000), wk =   0.0312500
        k(   17) = (   0.1250000   0.1250000   0.2500000), wk =   0.0937500
        k(   18) = (   0.1250000   0.1250000   0.3750000), wk =   0.0937500
        k(   19) = (   0.1250000   0.1250000  -0.5000000), wk =   0.0468750
        k(   20) = (   0.1250000   0.2500000   0.2500000), wk =   0.0937500
        k(   21) = (   0.1250000   0.2500000   0.3750000), wk =   0.1875000
        k(   22) = (   0.1250000   0.2500000  -0.5000000), wk =   0.0937500
        k(   23) = (   0.1250000   0.3750000   0.3750000), wk =   0.0937500
        k(   24) = (   0.1250000   0.3750000  -0.5000000), wk =   0.0937500
        k(   25) = (   0.1250000  -0.5000000  -0.5000000), wk =   0.0234375
        k(   26) = (   0.2500000   0.2500000   0.2500000), wk =   0.0312500
        k(   27) = (   0.2500000   0.2500000   0.3750000), wk =   0.0937500
        k(   28) = (   0.2500000   0.2500000  -0.5000000), wk =   0.0468750
        k(   29) = (   0.2500000   0.3750000   0.3750000), wk =   0.0937500
        k(   30) = (   0.2500000   0.3750000  -0.5000000), wk =   0.0937500
        k(   31) = (   0.2500000  -0.5000000  -0.5000000), wk =   0.0234375
        k(   32) = (   0.3750000   0.3750000   0.3750000), wk =   0.0312500
        k(   33) = (   0.3750000   0.3750000  -0.5000000), wk =   0.0468750
        k(   34) = (   0.3750000  -0.5000000  -0.5000000), wk =   0.0234375
        k(   35) = (  -0.5000000  -0.5000000  -0.5000000), wk =   0.0039062

     Dense  grid:     2553 G-vectors     FFT dimensions: (  18,  18,  18)

     Estimated max dynamical RAM per process >       6.19 MB

     Check: negative core charge=   -0.006931

     Initial potential from superposition of free atoms

     starting charge      21.9992, renormalised to      22.0000

     negative rho (up, down):  2.929E-04 0.000E+00
     Starting wfcs are   14 randomized atomic wfcs +    1 random wfcs

     total cpu time spent up to now is        0.2 secs

     Self-consistent Calculation

     iteration #  1     ecut=    20.00 Ry     beta= 0.70
     Davidson diagonalization with overlap
     ethr =  1.00E-02,  avg # of iterations =  5.4

     negative rho (up, down):  6.617E-07 0.000E+00

     total cpu time spent up to now is        0.5 secs

     total energy              =    -297.79153188 Ry
     estimated scf accuracy    <      37.27336127 Ry

     iteration #  2     ecut=    20.00 Ry     beta= 0.70
     Davidson diagonalization with overlap
     ethr =  1.00E-02,  avg # of iterations =  4.3

     total cpu time spent up to now is        0.9 secs

     total energy              =    -313.54446987 Ry
     estimated scf accuracy    <      26.23922144 Ry

     iteration #  3     ecut=    20.00 Ry     beta= 0.70
     Davidson diagonalization with overlap
     ethr =  1.00E-02,  avg # of iterations =  2.6

     total cpu time spent up to now is        1.1 secs

     total energy              =    -312.39035760 Ry
     estimated scf accuracy    <       3.63508179 Ry

     iteration #  4     ecut=    20.00 Ry     beta= 0.70
     Davidson diagonalization with overlap
     ethr =  1.00E-02,  avg # of iterations =  4.4

     total cpu time spent up to now is        1.4 secs

     total energy              =    -314.55329997 Ry
     estimated scf accuracy    <      22.95869316 Ry

     iteration #  5     ecut=    20.00 Ry     beta= 0.70
     Davidson diagonalization with overlap
     ethr =  1.00E-02,  avg # of iterations =  3.1

     total cpu time spent up to now is        1.6 secs

     total energy              =    -311.85933373 Ry
     estimated scf accuracy    <       7.01318762 Ry

     iteration #  6     ecut=    20.00 Ry     beta= 0.70
     Davidson diagonalization with overlap
     ethr =  1.00E-02,  avg # of iterations =  2.8

     total cpu time spent up to now is        1.9 secs

     total energy              =    -314.19000721 Ry
     estimated scf accuracy    <       2.34424952 Ry

     iteration #  7     ecut=    20.00 Ry     beta= 0.70
     Davidson diagonalization with overlap
     ethr =  1.00E-02,  avg # of iterations =  1.1

     total cpu time spent up to now is        2.1 secs

     total energy              =    -314.33758624 Ry
     estimated scf accuracy    <       0.36451791 Ry

     iteration #  8     ecut=    20.00 Ry     beta= 0.70
     Davidson diagonalization with overlap
     ethr =  1.66E-03,  avg # of iterations =  1.1

     total cpu time spent up to now is        2.2 secs

     total energy              =    -314.33300832 Ry
     estimated scf accuracy    <       0.38879565 Ry

     iteration #  9     ecut=    20.00 Ry     beta= 0.70
     Davidson diagonalization with overlap
     ethr =  1.66E-03,  avg # of iterations =  1.1

     total cpu time spent up to now is        2.4 secs

     total energy              =    -314.23271556 Ry
     estimated scf accuracy    <       0.35595549 Ry

     iteration # 10     ecut=    20.00 Ry     beta= 0.70
     Davidson diagonalization with overlap
     ethr =  1.62E-03,  avg # of iterations =  1.1

     total cpu time spent up to now is        2.6 secs

     total energy              =    -314.26188392 Ry
     estimated scf accuracy    <       0.01715376 Ry

     iteration # 11     ecut=    20.00 Ry     beta= 0.70
     Davidson diagonalization with overlap
     ethr =  7.80E-05,  avg # of iterations =  2.1

     total cpu time spent up to now is        2.8 secs

     total energy              =    -314.26280149 Ry
     estimated scf accuracy    <       0.00262045 Ry

     iteration # 12     ecut=    20.00 Ry     beta= 0.70
     Davidson diagonalization with overlap
     ethr =  1.19E-05,  avg # of iterations =  2.2

     total cpu time spent up to now is        3.0 secs

     total energy              =    -314.26371096 Ry
     estimated scf accuracy    <       0.00133228 Ry

     iteration # 13     ecut=    20.00 Ry     beta= 0.70
     Davidson diagonalization with overlap
     ethr =  6.06E-06,  avg # of iterations =  2.3

     total cpu time spent up to now is        3.2 secs

     total energy              =    -314.25841305 Ry
     estimated scf accuracy    <       0.01236790 Ry

     iteration # 14     ecut=    20.00 Ry     beta= 0.70
     Davidson diagonalization with overlap
     ethr =  6.06E-06,  avg # of iterations =  3.0

     total cpu time spent up to now is        3.5 secs

     total energy              =    -314.26313256 Ry
     estimated scf accuracy    <       0.01382593 Ry

     iteration # 15     ecut=    20.00 Ry     beta= 0.70
     Davidson diagonalization with overlap
     ethr =  6.06E-06,  avg # of iterations =  2.0

     total cpu time spent up to now is        3.7 secs

     total energy              =    -314.26190079 Ry
     estimated scf accuracy    <       0.00426876 Ry

     iteration # 16     ecut=    20.00 Ry     beta= 0.70
     Davidson diagonalization with overlap
     ethr =  6.06E-06,  avg # of iterations =  2.1

     total cpu time spent up to now is        4.0 secs

     total energy              =    -314.26281705 Ry
     estimated scf accuracy    <       0.00056021 Ry

     iteration # 17     ecut=    20.00 Ry     beta= 0.70
     Davidson diagonalization with overlap
     ethr =  2.55E-06,  avg # of iterations =  1.0

     total cpu time spent up to now is        4.1 secs

     total energy              =    -314.26284051 Ry
     estimated scf accuracy    <       0.00005076 Ry

     iteration # 18     ecut=    20.00 Ry     beta= 0.70
     Davidson diagonalization with overlap
     ethr =  2.31E-07,  avg # of iterations =  1.2

     total cpu time spent up to now is        4.3 secs

     total energy              =    -314.26284491 Ry
     estimated scf accuracy    <       0.00000227 Ry

     iteration # 19     ecut=    20.00 Ry     beta= 0.70
     Davidson diagonalization with overlap
     ethr =  1.03E-08,  avg # of iterations =  1.9

     total cpu time spent up to now is        4.5 secs

     End of self-consistent calculation

          k = 0.0000 0.0000 0.0000 (   341 PWs)   bands (ev):

  -156.7893 -74.7120 -74.7120 -74.7120  -0.2030   7.6153   7.6153  10.5550
    10.5550  10.5550  13.0085  14.5423  14.5423  14.5423  19.9954

          k = 0.0000 0.0000 0.1250 (   325 PWs)   bands (ev):

  -156.3898 -72.7324 -72.7324 -72.3746   0.0900   8.7644   9.0837  11.0412
    11.3117  11.3117  11.6554  15.0446  15.0446  15.5401  20.4596

          k = 0.0000 0.0000 0.2500 (   329 PWs)   bands (ev):

  -156.5335 -73.4307 -73.4307 -72.8770   0.8165   7.8479   8.7891  10.1618
    10.1618  10.9237  11.0777  16.0939  16.0939  16.3062  19.9920

          k = 0.0000 0.0000 0.3750 (   328 PWs)   bands (ev):

  -156.5588 -74.1604 -72.8818 -72.8818   2.0111   5.7036   9.0034   9.7737
     9.7737  10.3902  11.8244  17.0971  17.5626  17.5626  19.6333

          k = 0.0000 0.0000-0.5000 (   320 PWs)   bands (ev):

  -156.3777 -74.0285 -71.4437 -71.4437   3.3834   4.0194   9.8236   9.8367
     9.8367  10.9083  12.7943  17.7717  18.7209  18.7209  19.4674

          k = 0.0000 0.1250 0.1250 (   326 PWs)   bands (ev):

  -156.4408 -73.5676 -72.8843 -71.9654   0.3373   8.5218   9.2761  10.4604
    10.9837  11.0006  11.7444  13.7634  15.5170  16.9647  20.9681

          k = 0.0000 0.1250 0.2500 (   324 PWs)   bands (ev):

  -156.4304 -73.0948 -72.6668 -72.2373   1.0711   7.9183   9.1186  10.1256
    10.2080  11.3213  11.5246  13.8920  16.5427  17.8634  21.1004

          k = 0.0000 0.1250 0.3750 (   328 PWs)   bands (ev):

  -156.5596 -73.5469 -73.2192 -73.1000   2.2301   5.8509   9.0476   9.4334
     9.8037  11.2746  11.3367  14.6819  17.6323  17.6662  20.2850

          k = 0.0000 0.1250-0.5000 (   322 PWs)   bands (ev):

  -156.4266 -74.0951 -72.1425 -71.5091   3.6223   4.1796   9.4915   9.8933
    10.0862  10.9806  11.8660  15.9931  16.7421  18.6360  20.0891

          k = 0.0000 0.2500 0.2500 (   332 PWs)   bands (ev):

  -156.6509 -74.3945 -73.5485 -73.4404   1.7496   7.4938   8.8394   9.2156
     9.5162  10.5995  11.3738  12.3053  17.1619  17.3056  20.3974

          k = 0.0000 0.2500 0.3750 (   327 PWs)   bands (ev):

  -156.5467 -73.6787 -73.3181 -72.6448   2.9118   6.1560   9.1765   9.4841
     9.9604  10.7513  11.4239  12.6205  15.7955  17.9305  20.6365

          k = 0.0000 0.2500-0.5000 (   324 PWs)   bands (ev):

  -156.4634 -73.5529 -72.4330 -72.3905   4.3394   4.5410   9.1748   9.9653
    10.2281  11.0850  11.3300  13.4914  14.5525  18.3811  21.8329

          k = 0.0000 0.3750 0.3750 (   330 PWs)   bands (ev):

  -156.6282 -74.5154 -73.4510 -72.8860   3.9649   6.0981   8.9492   9.4078
     9.4706   9.8216  11.4493  11.7479  13.9821  18.0364  21.5804

          k = 0.0000 0.3750-0.5000 (   332 PWs)   bands (ev):

  -156.6726 -74.0567 -73.7593 -73.7174   5.0347   5.3663   9.0063   9.1476
     9.3414   9.6815  11.0766  11.5906  13.3745  18.0816  22.1868

          k = 0.0000-0.5000-0.5000 (   316 PWs)   bands (ev):

  -156.2736 -71.9848 -71.6468 -71.6468   5.4864   6.3115   8.8902   8.8902
    10.1393  10.1393  11.9386  12.4655  14.2046  18.0039  23.9636

          k = 0.1250 0.1250 0.1250 (   323 PWs)   bands (ev):

  -156.3793 -72.8999 -72.8999 -71.5723   0.5866   9.4915   9.4915  10.0257
    10.6001  10.6001  12.0632  14.1166  14.1166  18.3663  22.0866

          k = 0.1250 0.1250 0.2500 (   321 PWs)   bands (ev):

  -156.3544 -72.6130 -72.3868 -71.8487   1.3185   8.1259   9.4368  10.0777
    10.4329  10.8270  12.0898  13.9031  15.1783  18.7030  21.5992

          k = 0.1250 0.1250 0.3750 (   326 PWs)   bands (ev):

  -156.5050 -73.4008 -73.0286 -72.6469   2.4652   6.0351   9.0596   9.5485
     9.8504  11.0480  11.7789  14.4355  16.2726  17.5214  20.2212

          k = 0.1250 0.1250-0.5000 (   330 PWs)   bands (ev):

  -156.6201 -74.8513 -73.7102 -72.2166   3.8484   4.2810   8.8953   9.1995
     9.2600  10.8857  11.6155  15.5590  16.0711  17.0771  19.2174

          k = 0.1250 0.2500 0.2500 (   327 PWs)   bands (ev):

  -156.5286 -73.8663 -72.9490 -72.6170   2.0079   7.7424   9.2290   9.3770
     9.6582  10.1862  11.9343  13.1317  15.4525  17.4857  21.5918

          k = 0.1250 0.2500 0.3750 (   333 PWs)   bands (ev):

  -156.7033 -74.8114 -74.1844 -73.0575   3.1332   6.2254   8.8672   9.1665
     9.6415   9.9144  11.0918  12.9516  15.5190  16.4250  20.0209

          k = 0.1250 0.2500-0.5000 (   330 PWs)   bands (ev):

  -156.6353 -74.2321 -73.8995 -72.8091   4.5690   4.6658   8.7910   9.7422
     9.8088  10.0136  11.2457  13.8117  14.2738  17.0042  19.1664

          k = 0.1250 0.3750 0.3750 (   329 PWs)   bands (ev):

  -156.6275 -74.7664 -73.6485 -72.2168   4.1887   6.3197   8.5963   8.8707
    10.0257  10.3035  11.7071  11.7285  14.0090  17.0763  20.2017

          k = 0.1250 0.3750-0.5000 (   330 PWs)   bands (ev):

  -156.6592 -74.8127 -73.1831 -73.0630   5.2374   5.5849   8.6464   8.7422
    10.1737  10.2286  11.0544  11.7761  13.2991  17.2793  20.2014

          k = 0.1250-0.5000-0.5000 (   324 PWs)   bands (ev):

  -156.5164 -73.9160 -72.4347 -72.4347   5.6483   6.4125   8.3588   8.3588
    10.7098  10.7098  11.1638  11.3406  13.3886  17.5410  21.7474

          k = 0.2500 0.2500 0.2500 (   326 PWs)   bands (ev):

  -156.5316 -74.7734 -72.2368 -72.2368   2.7168   7.4480   9.2329   9.2329
    10.2250  10.2250  11.4061  13.9927  13.9927  16.4185  20.9732

          k = 0.2500 0.2500 0.3750 (   321 PWs)   bands (ev):

  -156.4351 -74.5038 -72.0903 -71.0351   3.8601   6.6591   8.9542   9.3820
    10.4469  10.7300  11.6847  13.8318  15.1437  15.3109  18.6711

          k = 0.2500 0.2500-0.5000 (   324 PWs)   bands (ev):

  -156.5170 -73.6105 -73.4244 -71.8357   5.1390   5.3944   8.4797   9.4263
    10.6901  10.8525  11.3853  13.4613  14.4591  16.0996  16.9437

          k = 0.2500 0.3750 0.3750 (   320 PWs)   bands (ev):

  -156.4288 -73.3154 -72.1940 -71.7977   4.8656   7.0768   8.4723   8.7987
    10.9211  11.0502  12.1404  13.1441  13.5397  15.7357  18.1746

          k = 0.2500 0.3750-0.5000 (   324 PWs)   bands (ev):

  -156.5340 -73.4694 -72.9109 -72.5311   5.7210   6.4424   8.0957   8.9647
    10.9835  11.3088  11.4842  12.1986  13.1107  16.1432  17.1947

          k = 0.2500-0.5000-0.5000 (   320 PWs)   bands (ev):

  -156.4511 -72.5898 -72.4482 -72.4482   6.2485   7.3962   8.0471   8.0471
    11.3518  11.6162  11.6162  12.0041  12.1458  16.9619  18.5209

          k = 0.3750 0.3750 0.3750 (   317 PWs)   bands (ev):

  -156.3774 -72.9184 -71.6973 -71.6973   5.8469   7.9309   8.2517   8.2517
    11.2855  11.2855  11.5672  13.8303  14.2920  14.2920  17.5822

          k = 0.3750 0.3750-0.5000 (   322 PWs)   bands (ev):

  -156.5059 -73.7926 -72.8357 -71.6675   6.4045   7.5254   8.2121   8.4955
    10.5956  11.0740  11.7114  12.4338  14.2213  15.1080  16.1905

          k = 0.3750-0.5000-0.5000 (   324 PWs)   bands (ev):

  -156.5580 -73.8810 -72.6109 -72.6109   7.2162   7.6113   7.6113   8.3986
    10.3068  11.4291  11.8235  12.6966  12.6966  15.4959  16.6778

          k =-0.5000-0.5000-0.5000 (   304 PWs)   bands (ev):

  -156.0731 -70.4928 -70.4928 -70.4928   8.4058   8.4058   8.4058   9.0415
     9.3123  12.6429  12.6429  14.2149  14.2149  14.2149  17.0048

     the Fermi energy is    11.9612 ev

!    total energy              =    -314.26284503 Ry
     estimated scf accuracy    <       0.00000020 Ry
     smearing contrib. (-TS)   =       0.00059827 Ry
     internal energy E=F+TS    =    -314.26344330 Ry

     The total energy is F=E-TS. E is the sum of the following terms:
     one-electron contribution =    -182.18139511 Ry
     hartree contribution      =      87.29763229 Ry
     xc contribution           =     -39.35302669 Ry
     ewald contribution        =    -180.02665380 Ry

     convergence has been achieved in  19 iterations

     Forces acting on atoms (cartesian axes, Ry/au):

     atom    1 type  1   force =     0.00000000    0.00000000    0.00000000
     atom    2 type  2   force =     0.00000000    0.00000000    0.00000000

     Total force =     0.000000     Total SCF correction =     0.000000


     Computing stress (Cartesian axis) and pressure

          total   stress  (Ry/bohr**3)                   (kbar)     P=   -22281.39
  -0.15146581   0.00000000   0.00000000       -22281.39        0.00        0.00
   0.00000000  -0.15146581   0.00000000            0.00   -22281.39        0.00
   0.00000000   0.00000000  -0.15146581            0.00        0.00   -22281.39


     Writing all to output data dir ./tmp/SiNi.save/ :
     XML data file, charge density, pseudopotentials, collected wavefunctions

     init_run     :      0.13s CPU      0.15s WALL (       1 calls)
     electrons    :      3.59s CPU      4.33s WALL (       1 calls)
     forces       :      0.03s CPU      0.03s WALL (       1 calls)
     stress       :      0.10s CPU      0.10s WALL (       1 calls)

     Called by init_run:
     wfcinit      :      0.06s CPU      0.07s WALL (       1 calls)
     potinit      :      0.02s CPU      0.02s WALL (       1 calls)
     hinit0       :      0.05s CPU      0.05s WALL (       1 calls)

     Called by electrons:
     c_bands      :      3.16s CPU      3.80s WALL (      19 calls)
     sum_band     :      0.40s CPU      0.49s WALL (      19 calls)
     v_of_rho     :      0.03s CPU      0.03s WALL (      20 calls)
     mix_rho      :      0.00s CPU      0.01s WALL (      19 calls)

     Called by c_bands:
     init_us_2    :      0.08s CPU      0.10s WALL (    1435 calls)
     cegterg      :      3.00s CPU      3.63s WALL (     665 calls)

     Called by *egterg:
     cdiaghg      :      0.25s CPU      0.29s WALL (    2238 calls)
     h_psi        :      2.18s CPU      2.68s WALL (    2273 calls)
     g_psi        :      0.01s CPU      0.02s WALL (    1573 calls)

     Called by h_psi:
     h_psi:calbec :      0.21s CPU      0.27s WALL (    2273 calls)
     vloc_psi     :      1.74s CPU      2.12s WALL (    2273 calls)
                                        0.00s GPU  (    2273 calls)
     add_vuspsi   :      0.20s CPU      0.26s WALL (    2273 calls)

     General routines
     calbec       :      0.28s CPU      0.34s WALL (    2868 calls)
     fft          :      0.01s CPU      0.01s WALL (     224 calls)
     ffts         :      0.00s CPU      0.00s WALL (      19 calls)
     fftw         :      1.69s CPU      2.23s WALL (   60743 calls)


     PWSCF        :      3.88s CPU      4.65s WALL


   This run was terminated on:  19: 1:24   7Jan2026            

=------------------------------------------------------------------------------=
   JOB DONE.
=------------------------------------------------------------------------------=
