
     Program PWSCF v.7.5 starts on  7Jan2026 at 19: 6:32 

     This program is part of the open-source Quantum ESPRESSO suite
     for quantum simulation of materials; please cite
         "P. Giannozzi et al., J. Phys.:Condens. Matter 21 395502 (2009);
         "P. Giannozzi et al., J. Phys.:Condens. Matter 29 465901 (2017);
         "P. Giannozzi et al., J. Chem. Phys. 152 154105 (2020);
          URL http://www.quantum-espresso.org", 
     in publications or presentations arising from this work. More details at
     http://www.quantum-espresso.org/quote

     Serial version
     1047 MiB available memory on the printing compute node when the environment starts

     Waiting for input...
     Reading input from standard input

     Current dimensions of program PWSCF are:
     Max number of different atomic species (ntypx) = 10
     Max number of k-points (npk) =  40000
     Max angular momentum in pseudopotentials (lmaxx) =  4


     G-vector sticks info
     --------------------
     sticks:   dense  smooth     PW     G-vecs:    dense   smooth      PW
     Sum        1265    1265    373                33641    33641    5449

     Using Slab Decomposition



     bravais-lattice index     =            1
     lattice parameter (alat)  =       6.0000  a.u.
     unit-cell volume          =     216.0000 (a.u.)^3
     number of atoms/cell      =            2
     number of atomic types    =            2
     number of electrons       =        22.00
     number of Kohn-Sham states=           15
     kinetic-energy cutoff     =     110.0000  Ry
     charge density cutoff     =     440.0000  Ry
     scf convergence threshold =      1.0E-06
     mixing beta               =       0.7000
     number of iterations used =            8  plain     mixing
     Exchange-correlation= PBE
                           (   1   4   3   4   0   0   0)

     celldm(1)=   6.000000  celldm(2)=   0.000000  celldm(3)=   0.000000
     celldm(4)=   0.000000  celldm(5)=   0.000000  celldm(6)=   0.000000

     crystal axes: (cart. coord. in units of alat)
               a(1) = (   1.000000   0.000000   0.000000 )  
               a(2) = (   0.000000   1.000000   0.000000 )  
               a(3) = (   0.000000   0.000000   1.000000 )  

     reciprocal axes: (cart. coord. in units 2 pi/alat)
               b(1) = (  1.000000  0.000000  0.000000 )  
               b(2) = (  0.000000  1.000000  0.000000 )  
               b(3) = (  0.000000  0.000000  1.000000 )  


     PseudoPot. # 1 for Si read from file:
     ./PSEUDO/Si.upf
     MD5 check sum: 02fab3f35e82123ef5bf1cb05d5b1a5e
     Pseudo is Norm-conserving + core correction, Zval =  4.0
     Generated using ONCVPSP code by D. R. Hamann
     Using radial grid of 1510 points,  6 beta functions with: 
                l(1) =   0
                l(2) =   0
                l(3) =   1
                l(4) =   1
                l(5) =   2
                l(6) =   2

     PseudoPot. # 2 for Ni read from file:
     ./PSEUDO/Ni.upf
     MD5 check sum: 2b0a79d100e227970886d6963e34175b
     Pseudo is Norm-conserving + core correction, Zval = 18.0
     Generated using ONCVPSP code by D. R. Hamann
     Using radial grid of 1372 points,  6 beta functions with: 
                l(1) =   0
                l(2) =   0
                l(3) =   1
                l(4) =   1
                l(5) =   2
                l(6) =   2

     atomic species   valence    mass     pseudopotential
     Si                4.00    28.08550     Si( 1.00)
     Ni               18.00    58.69340     Ni( 1.00)

     48 Sym. Ops., with inversion, found



   Cartesian axes

     site n.     atom                  positions (alat units)
         1        Si     tau(   1) = (   0.0000000   0.0000000   0.0000000  )
         2        Ni     tau(   2) = (   0.5000000   0.5000000   0.5000000  )

     number of k points=     4  Methfessel-Paxton smearing, width (Ry)=  0.0400
                       cart. coord. in units 2pi/alat
        k(    1) = (   0.0000000   0.0000000   0.0000000), wk =   0.2500000
        k(    2) = (   0.0000000   0.0000000  -0.5000000), wk =   0.7500000
        k(    3) = (   0.0000000  -0.5000000  -0.5000000), wk =   0.7500000
        k(    4) = (  -0.5000000  -0.5000000  -0.5000000), wk =   0.2500000

     Dense  grid:    33641 G-vectors     FFT dimensions: (  45,  45,  45)

     Estimated max dynamical RAM per process >      35.67 MB

     Initial potential from superposition of free atoms

     starting charge      21.9992, renormalised to      22.0000
     Starting wfcs are   14 randomized atomic wfcs +    1 random wfcs

     total cpu time spent up to now is        0.7 secs

     Self-consistent Calculation

     iteration #  1     ecut=   110.00 Ry     beta= 0.70
     Davidson diagonalization with overlap
     ethr =  1.00E-02,  avg # of iterations =  3.2

     total cpu time spent up to now is        1.5 secs

     total energy              =    -343.75507278 Ry
     estimated scf accuracy    <       0.47028352 Ry

     iteration #  2     ecut=   110.00 Ry     beta= 0.70
     Davidson diagonalization with overlap
     ethr =  2.14E-03,  avg # of iterations =  4.0

     total cpu time spent up to now is        2.1 secs

     total energy              =    -342.73685220 Ry
     estimated scf accuracy    <      11.01405322 Ry

     iteration #  3     ecut=   110.00 Ry     beta= 0.70
     Davidson diagonalization with overlap
     ethr =  2.14E-03,  avg # of iterations =  3.0

     total cpu time spent up to now is        2.5 secs

     total energy              =    -344.07307331 Ry
     estimated scf accuracy    <       0.06138768 Ry

     iteration #  4     ecut=   110.00 Ry     beta= 0.70
     Davidson diagonalization with overlap
     ethr =  2.79E-04,  avg # of iterations =  1.0

     total cpu time spent up to now is        2.8 secs

     total energy              =    -344.06149012 Ry
     estimated scf accuracy    <       0.05029592 Ry

     iteration #  5     ecut=   110.00 Ry     beta= 0.70
     Davidson diagonalization with overlap
     ethr =  2.29E-04,  avg # of iterations =  1.2

     total cpu time spent up to now is        3.1 secs

     total energy              =    -344.06416797 Ry
     estimated scf accuracy    <       0.00407591 Ry

     iteration #  6     ecut=   110.00 Ry     beta= 0.70
     Davidson diagonalization with overlap
     ethr =  1.85E-05,  avg # of iterations =  1.8

     total cpu time spent up to now is        3.3 secs

     total energy              =    -344.06444809 Ry
     estimated scf accuracy    <       0.00025248 Ry

     iteration #  7     ecut=   110.00 Ry     beta= 0.70
     Davidson diagonalization with overlap
     ethr =  1.15E-06,  avg # of iterations =  8.0

     total cpu time spent up to now is        3.7 secs

     total energy              =    -344.06447641 Ry
     estimated scf accuracy    <       0.00005109 Ry

     iteration #  8     ecut=   110.00 Ry     beta= 0.70
     Davidson diagonalization with overlap
     ethr =  2.32E-07,  avg # of iterations =  2.0

     total cpu time spent up to now is        4.0 secs

     End of self-consistent calculation

          k = 0.0000 0.0000 0.0000 (  4169 PWs)   bands (ev):

   -91.9885 -52.3788 -52.3788 -52.3788  -0.4965   8.5476   8.5476   9.6330
     9.6330   9.6330  12.6910  12.6910  12.6910  16.4620  17.1798

          k = 0.0000 0.0000-0.5000 (  4220 PWs)   bands (ev):

   -91.9883 -52.3850 -52.3783 -52.3783   2.1024   4.3269   8.8911   8.9598
     8.9598   9.6989  10.1443  15.7082  15.7082  17.5138  18.5746

          k = 0.0000-0.5000-0.5000 (  4196 PWs)   bands (ev):

   -91.9880 -52.3845 -52.3845 -52.3778   3.9012   6.9964   6.9964   8.2433
     9.2734   9.2734  10.0267  10.6107  11.4918  15.9541  21.3146

          k =-0.5000-0.5000-0.5000 (  4224 PWs)   bands (ev):

   -91.9877 -52.3840 -52.3840 -52.3840   6.9935   6.9935   6.9935   7.0195
    10.0456  10.0456  12.3970  12.3970  12.5509  12.5509  12.5509

     the Fermi energy is    10.6671 ev

!    total energy              =    -344.06448288 Ry
     estimated scf accuracy    <       0.00000067 Ry
     smearing contrib. (-TS)   =       0.00378350 Ry
     internal energy E=F+TS    =    -344.06826638 Ry

     The total energy is F=E-TS. E is the sum of the following terms:
     one-electron contribution =    -255.31394113 Ry
     hartree contribution      =     137.09899539 Ry
     xc contribution           =     -45.82666685 Ry
     ewald contribution        =    -180.02665378 Ry

     convergence has been achieved in   8 iterations

     Forces acting on atoms (cartesian axes, Ry/au):

     atom    1 type  1   force =     0.00000000    0.00000000    0.00000000
     atom    2 type  2   force =     0.00000000    0.00000000    0.00000000

     Total force =     0.000000     Total SCF correction =     0.000000


     Computing stress (Cartesian axis) and pressure

          total   stress  (Ry/bohr**3)                   (kbar)     P=     -238.07
  -0.00161840   0.00000000   0.00000000         -238.07        0.00        0.00
   0.00000000  -0.00161840   0.00000000            0.00     -238.07        0.00
   0.00000000   0.00000000  -0.00161840            0.00        0.00     -238.07


     Writing all to output data dir ./tmp/SiNi.save/ :
     XML data file, charge density, pseudopotentials, collected wavefunctions

     init_run     :      0.62s CPU      0.66s WALL (       1 calls)
     electrons    :      3.17s CPU      3.27s WALL (       1 calls)
     forces       :      0.06s CPU      0.07s WALL (       1 calls)
     stress       :      0.23s CPU      0.24s WALL (       1 calls)

     Called by init_run:
     wfcinit      :      0.19s CPU      0.20s WALL (       1 calls)
     potinit      :      0.13s CPU      0.15s WALL (       1 calls)
     hinit0       :      0.27s CPU      0.28s WALL (       1 calls)

     Called by electrons:
     c_bands      :      2.59s CPU      2.66s WALL (       8 calls)
     sum_band     :      0.35s CPU      0.36s WALL (       8 calls)
     v_of_rho     :      0.24s CPU      0.27s WALL (       9 calls)
     mix_rho      :      0.03s CPU      0.03s WALL (       8 calls)

     Called by c_bands:
     init_us_2    :      0.07s CPU      0.08s WALL (      76 calls)
     cegterg      :      2.38s CPU      2.45s WALL (      32 calls)

     Called by *egterg:
     cdiaghg      :      0.02s CPU      0.02s WALL (     129 calls)
     h_psi        :      2.03s CPU      2.09s WALL (     133 calls)
     g_psi        :      0.01s CPU      0.01s WALL (      97 calls)

     Called by h_psi:
     h_psi:calbec :      0.20s CPU      0.20s WALL (     133 calls)
     vloc_psi     :      1.63s CPU      1.69s WALL (     133 calls)
                                        0.00s GPU  (     133 calls)
     add_vuspsi   :      0.18s CPU      0.18s WALL (     133 calls)

     General routines
     calbec       :      0.32s CPU      0.33s WALL (     201 calls)
     fft          :      0.11s CPU      0.11s WALL (     114 calls)
     ffts         :      0.01s CPU      0.01s WALL (       8 calls)
     fftw         :      1.71s CPU      1.76s WALL (    2914 calls)


     PWSCF        :      4.14s CPU      4.33s WALL


   This run was terminated on:  19: 6:37   7Jan2026            

=------------------------------------------------------------------------------=
   JOB DONE.
=------------------------------------------------------------------------------=
