
     Program PWSCF v.7.5 starts on  7Jan2026 at 19: 6:46 

     This program is part of the open-source Quantum ESPRESSO suite
     for quantum simulation of materials; please cite
         "P. Giannozzi et al., J. Phys.:Condens. Matter 21 395502 (2009);
         "P. Giannozzi et al., J. Phys.:Condens. Matter 29 465901 (2017);
         "P. Giannozzi et al., J. Chem. Phys. 152 154105 (2020);
          URL http://www.quantum-espresso.org", 
     in publications or presentations arising from this work. More details at
     http://www.quantum-espresso.org/quote

     Serial version
     1034 MiB available memory on the printing compute node when the environment starts

     Waiting for input...
     Reading input from standard input

     Current dimensions of program PWSCF are:
     Max number of different atomic species (ntypx) = 10
     Max number of k-points (npk) =  40000
     Max angular momentum in pseudopotentials (lmaxx) =  4


     G-vector sticks info
     --------------------
     sticks:   dense  smooth     PW     G-vecs:    dense   smooth      PW
     Sum        1265    1265    373                33641    33641    5449

     Using Slab Decomposition



     bravais-lattice index     =            1
     lattice parameter (alat)  =       6.0000  a.u.
     unit-cell volume          =     216.0000 (a.u.)^3
     number of atoms/cell      =            2
     number of atomic types    =            2
     number of electrons       =        22.00
     number of Kohn-Sham states=           15
     kinetic-energy cutoff     =     110.0000  Ry
     charge density cutoff     =     440.0000  Ry
     scf convergence threshold =      1.0E-06
     mixing beta               =       0.7000
     number of iterations used =            8  plain     mixing
     Exchange-correlation= PBE
                           (   1   4   3   4   0   0   0)

     celldm(1)=   6.000000  celldm(2)=   0.000000  celldm(3)=   0.000000
     celldm(4)=   0.000000  celldm(5)=   0.000000  celldm(6)=   0.000000

     crystal axes: (cart. coord. in units of alat)
               a(1) = (   1.000000   0.000000   0.000000 )  
               a(2) = (   0.000000   1.000000   0.000000 )  
               a(3) = (   0.000000   0.000000   1.000000 )  

     reciprocal axes: (cart. coord. in units 2 pi/alat)
               b(1) = (  1.000000  0.000000  0.000000 )  
               b(2) = (  0.000000  1.000000  0.000000 )  
               b(3) = (  0.000000  0.000000  1.000000 )  


     PseudoPot. # 1 for Si read from file:
     ./PSEUDO/Si.upf
     MD5 check sum: 02fab3f35e82123ef5bf1cb05d5b1a5e
     Pseudo is Norm-conserving + core correction, Zval =  4.0
     Generated using ONCVPSP code by D. R. Hamann
     Using radial grid of 1510 points,  6 beta functions with: 
                l(1) =   0
                l(2) =   0
                l(3) =   1
                l(4) =   1
                l(5) =   2
                l(6) =   2

     PseudoPot. # 2 for Ni read from file:
     ./PSEUDO/Ni.upf
     MD5 check sum: 2b0a79d100e227970886d6963e34175b
     Pseudo is Norm-conserving + core correction, Zval = 18.0
     Generated using ONCVPSP code by D. R. Hamann
     Using radial grid of 1372 points,  6 beta functions with: 
                l(1) =   0
                l(2) =   0
                l(3) =   1
                l(4) =   1
                l(5) =   2
                l(6) =   2

     atomic species   valence    mass     pseudopotential
     Si                4.00    28.08550     Si( 1.00)
     Ni               18.00    58.69340     Ni( 1.00)

     48 Sym. Ops., with inversion, found



   Cartesian axes

     site n.     atom                  positions (alat units)
         1        Si     tau(   1) = (   0.0000000   0.0000000   0.0000000  )
         2        Ni     tau(   2) = (   0.5000000   0.5000000   0.5000000  )

     number of k points=    20  Methfessel-Paxton smearing, width (Ry)=  0.0400
                       cart. coord. in units 2pi/alat
        k(    1) = (   0.0000000   0.0000000   0.0000000), wk =   0.0092593
        k(    2) = (   0.0000000   0.0000000   0.1666667), wk =   0.0555556
        k(    3) = (   0.0000000   0.0000000   0.3333333), wk =   0.0555556
        k(    4) = (   0.0000000   0.0000000  -0.5000000), wk =   0.0277778
        k(    5) = (   0.0000000   0.1666667   0.1666667), wk =   0.1111111
        k(    6) = (   0.0000000   0.1666667   0.3333333), wk =   0.2222222
        k(    7) = (   0.0000000   0.1666667  -0.5000000), wk =   0.1111111
        k(    8) = (   0.0000000   0.3333333   0.3333333), wk =   0.1111111
        k(    9) = (   0.0000000   0.3333333  -0.5000000), wk =   0.1111111
        k(   10) = (   0.0000000  -0.5000000  -0.5000000), wk =   0.0277778
        k(   11) = (   0.1666667   0.1666667   0.1666667), wk =   0.0740741
        k(   12) = (   0.1666667   0.1666667   0.3333333), wk =   0.2222222
        k(   13) = (   0.1666667   0.1666667  -0.5000000), wk =   0.1111111
        k(   14) = (   0.1666667   0.3333333   0.3333333), wk =   0.2222222
        k(   15) = (   0.1666667   0.3333333  -0.5000000), wk =   0.2222222
        k(   16) = (   0.1666667  -0.5000000  -0.5000000), wk =   0.0555556
        k(   17) = (   0.3333333   0.3333333   0.3333333), wk =   0.0740741
        k(   18) = (   0.3333333   0.3333333  -0.5000000), wk =   0.1111111
        k(   19) = (   0.3333333  -0.5000000  -0.5000000), wk =   0.0555556
        k(   20) = (  -0.5000000  -0.5000000  -0.5000000), wk =   0.0092593

     Dense  grid:    33641 G-vectors     FFT dimensions: (  45,  45,  45)

     Estimated max dynamical RAM per process >      51.08 MB

     Initial potential from superposition of free atoms

     starting charge      21.9992, renormalised to      22.0000
     Starting wfcs are   14 randomized atomic wfcs +    1 random wfcs

     total cpu time spent up to now is        0.8 secs

     Self-consistent Calculation

     iteration #  1     ecut=   110.00 Ry     beta= 0.70
     Davidson diagonalization with overlap
     ethr =  1.00E-02,  avg # of iterations =  3.5

     total cpu time spent up to now is        2.4 secs

     total energy              =    -343.56334609 Ry
     estimated scf accuracy    <       0.63533096 Ry

     iteration #  2     ecut=   110.00 Ry     beta= 0.70
     Davidson diagonalization with overlap
     ethr =  2.89E-03,  avg # of iterations =  3.6

     total cpu time spent up to now is        4.3 secs

     total energy              =    -342.36338634 Ry
     estimated scf accuracy    <      17.53398158 Ry

     iteration #  3     ecut=   110.00 Ry     beta= 0.70
     Davidson diagonalization with overlap
     ethr =  2.89E-03,  avg # of iterations =  3.4

     total cpu time spent up to now is        6.2 secs

     total energy              =    -344.00943175 Ry
     estimated scf accuracy    <       0.03722259 Ry

     iteration #  4     ecut=   110.00 Ry     beta= 0.70
     Davidson diagonalization with overlap
     ethr =  1.69E-04,  avg # of iterations =  2.0

     total cpu time spent up to now is        7.6 secs

     total energy              =    -344.00451989 Ry
     estimated scf accuracy    <       0.03067668 Ry

     iteration #  5     ecut=   110.00 Ry     beta= 0.70
     Davidson diagonalization with overlap
     ethr =  1.39E-04,  avg # of iterations =  1.1

     total cpu time spent up to now is        8.9 secs

     total energy              =    -344.00753057 Ry
     estimated scf accuracy    <       0.00050323 Ry

     iteration #  6     ecut=   110.00 Ry     beta= 0.70
     Davidson diagonalization with overlap
     ethr =  2.29E-06,  avg # of iterations =  4.6

     total cpu time spent up to now is       10.6 secs

     total energy              =    -344.00758301 Ry
     estimated scf accuracy    <       0.00026386 Ry

     iteration #  7     ecut=   110.00 Ry     beta= 0.70
     Davidson diagonalization with overlap
     ethr =  1.20E-06,  avg # of iterations =  1.0

     total cpu time spent up to now is       11.8 secs

     total energy              =    -344.00756037 Ry
     estimated scf accuracy    <       0.00011097 Ry

     iteration #  8     ecut=   110.00 Ry     beta= 0.70
     Davidson diagonalization with overlap
     ethr =  5.04E-07,  avg # of iterations =  1.7

     total cpu time spent up to now is       13.2 secs

     End of self-consistent calculation

          k = 0.0000 0.0000 0.0000 (  4169 PWs)   bands (ev):

   -92.4388 -52.8143 -52.8143 -52.8143  -0.5140   8.2779   8.2779   9.2852
     9.2852   9.2852  12.6658  12.6658  12.6658  16.3986  17.1103

          k = 0.0000 0.0000 0.1667 (  4188 PWs)   bands (ev):

   -92.4387 -52.8158 -52.8142 -52.8142  -0.1273   7.9537   8.3539   9.0930
     9.0930   9.3006  10.6658  13.2094  13.2094  16.9050  17.1907

          k = 0.0000 0.0000 0.3333 (  4200 PWs)   bands (ev):

   -92.4386 -52.8189 -52.8139 -52.8139   0.9738   5.9814   8.5113   8.7886
     8.7886   9.3316   9.7925  14.5242  14.5242  17.3922  17.7286

          k = 0.0000 0.0000-0.5000 (  4220 PWs)   bands (ev):

   -92.4385 -52.8204 -52.8138 -52.8138   2.0848   4.2969   8.5930   8.6615
     8.6615   9.3472   9.8107  15.6226  15.6226  17.5228  18.5430

          k = 0.0000 0.1667 0.1667 (  4176 PWs)   bands (ev):

   -92.4387 -52.8157 -52.8157 -52.8141   0.2532   8.0521   8.1103   8.8704
     9.0625   9.2023  11.0965  11.1088  13.6738  17.2439  19.8762

          k = 0.0000 0.1667 0.3333 (  4195 PWs)   bands (ev):

   -92.4385 -52.8187 -52.8155 -52.8138   1.3306   6.2815   8.3182   8.7437
     8.8413   9.2152   9.8864  12.1465  14.8062  17.0519  18.1737

          k = 0.0000 0.1667-0.5000 (  4222 PWs)   bands (ev):

   -92.4385 -52.8202 -52.8153 -52.8137   2.3920   4.6933   8.4595   8.6483
     8.7301   9.2395   9.8022  13.1149  15.5261  15.6847  18.4520

          k = 0.0000 0.3333 0.3333 (  4220 PWs)   bands (ev):

   -92.4384 -52.8185 -52.8185 -52.8136   2.3187   6.8010   7.3829   8.7454
     8.9206   9.0324   9.9207  10.5887  14.1243  15.4422  18.9285

          k = 0.0000 0.3333-0.5000 (  4208 PWs)   bands (ev):

   -92.4383 -52.8200 -52.8183 -52.8135   3.2080   5.8118   7.7240   8.6123
     8.8721   9.0392   9.7486  10.9275  12.4968  15.8345  19.7434

          k = 0.0000-0.5000-0.5000 (  4196 PWs)   bands (ev):

   -92.4383 -52.8199 -52.8199 -52.8134   3.8491   6.9847   6.9847   8.0516
     8.9457   8.9457   9.6782  10.2881  11.3082  15.9270  21.2956

          k = 0.1667 0.1667 0.1667 (  4211 PWs)   bands (ev):

   -92.4386 -52.8156 -52.8156 -52.8156   0.6278   8.1092   8.1092   8.6709
     9.0158   9.0158  11.3161  11.5746  11.5746  19.3233  20.3775

          k = 0.1667 0.1667 0.3333 (  4205 PWs)   bands (ev):

   -92.4385 -52.8186 -52.8154 -52.8153   1.6838   6.5680   8.1919   8.7913
     8.7990   9.0890  10.0276  12.1759  12.6925  17.2005  17.9769

          k = 0.1667 0.1667-0.5000 (  4248 PWs)   bands (ev):

   -92.4384 -52.8201 -52.8152 -52.8152   2.7037   5.0681   8.2040   8.7388
     8.9294   9.1084   9.8196  12.9250  13.6421  15.7039  16.3456

          k = 0.1667 0.3333 0.3333 (  4226 PWs)   bands (ev):

   -92.4383 -52.8184 -52.8183 -52.8151   2.6605   7.0937   7.3585   8.6932
     8.9549   9.0911  10.2368  10.4867  13.2272  14.4832  18.1754

          k = 0.1667 0.3333-0.5000 (  4208 PWs)   bands (ev):

   -92.4383 -52.8199 -52.8182 -52.8150   3.5378   6.0811   7.5834   8.7011
     9.0852   9.1996   9.8133  10.7871  12.8415  13.9398  17.2152

          k = 0.1667-0.5000-0.5000 (  4204 PWs)   bands (ev):

   -92.4382 -52.8197 -52.8197 -52.8149   4.2100   6.9422   6.9422   8.4119
     9.3412   9.3412   9.6827   9.9935  11.4054  14.3276  18.2625

          k = 0.3333 0.3333 0.3333 (  4212 PWs)   bands (ev):

   -92.4382 -52.8181 -52.8181 -52.8181   3.6027   7.3070   7.3070   8.7783
     9.1824   9.1824   9.9263  11.2439  11.2439  15.0797  15.7420

          k = 0.3333 0.3333-0.5000 (  4208 PWs)   bands (ev):

   -92.4381 -52.8196 -52.8180 -52.8180   4.4467   6.6288   7.2806   9.1303
     9.2198   9.4432   9.9841  10.2933  12.5714  13.6554  14.0485

          k = 0.3333-0.5000-0.5000 (  4220 PWs)   bands (ev):

   -92.4381 -52.8195 -52.8195 -52.8179   5.2668   6.8730   6.8730   8.7896
     9.2415   9.6918  10.4867  10.4867  11.8029  12.7324  14.9418

          k =-0.5000-0.5000-0.5000 (  4224 PWs)   bands (ev):

   -92.4380 -52.8194 -52.8194 -52.8194   6.8434   6.8434   6.8434   6.9872
     9.6963   9.6963  12.3278  12.3278  12.3278  12.3759  12.3759

     the Fermi energy is    10.4305 ev

!    total energy              =    -344.00757221 Ry
     estimated scf accuracy    <       0.00000052 Ry
     smearing contrib. (-TS)   =       0.00119578 Ry
     internal energy E=F+TS    =    -344.00876798 Ry

     The total energy is F=E-TS. E is the sum of the following terms:
     one-electron contribution =    -254.84321436 Ry
     hartree contribution      =     136.62674620 Ry
     xc contribution           =     -45.76564604 Ry
     ewald contribution        =    -180.02665378 Ry

     convergence has been achieved in   8 iterations

     Forces acting on atoms (cartesian axes, Ry/au):

     atom    1 type  1   force =     0.00000000    0.00000000    0.00000000
     atom    2 type  2   force =     0.00000000    0.00000000    0.00000000

     Total force =     0.000000     Total SCF correction =     0.000000


     Computing stress (Cartesian axis) and pressure

          total   stress  (Ry/bohr**3)                   (kbar)     P=     -260.15
  -0.00176847   0.00000000   0.00000000         -260.15        0.00        0.00
   0.00000000  -0.00176847   0.00000000            0.00     -260.15        0.00
   0.00000000   0.00000000  -0.00176847            0.00        0.00     -260.15


     Writing all to output data dir ./tmp/SiNi.save/ :
     XML data file, charge density, pseudopotentials, collected wavefunctions

     init_run     :      0.68s CPU      0.72s WALL (       1 calls)
     electrons    :     12.19s CPU     12.41s WALL (       1 calls)
     forces       :      0.21s CPU      0.22s WALL (       1 calls)
     stress       :      0.82s CPU      0.84s WALL (       1 calls)

     Called by init_run:
     wfcinit      :      0.46s CPU      0.49s WALL (       1 calls)
     potinit      :      0.07s CPU      0.08s WALL (       1 calls)
     hinit0       :      0.13s CPU      0.14s WALL (       1 calls)

     Called by electrons:
     c_bands      :     10.47s CPU     10.66s WALL (       8 calls)
     sum_band     :      1.52s CPU      1.54s WALL (       8 calls)
     v_of_rho     :      0.19s CPU      0.21s WALL (       9 calls)
     mix_rho      :      0.02s CPU      0.02s WALL (       8 calls)

     Called by c_bands:
     init_us_2    :      0.33s CPU      0.34s WALL (     380 calls)
     cegterg      :      9.96s CPU     10.14s WALL (     160 calls)

     Called by *egterg:
     cdiaghg      :      0.08s CPU      0.08s WALL (     577 calls)
     h_psi        :      8.25s CPU      8.43s WALL (     597 calls)
     g_psi        :      0.04s CPU      0.04s WALL (     417 calls)

     Called by h_psi:
     h_psi:calbec :      0.83s CPU      0.83s WALL (     597 calls)
     vloc_psi     :      6.65s CPU      6.79s WALL (     597 calls)
                                        0.00s GPU  (     597 calls)
     add_vuspsi   :      0.74s CPU      0.75s WALL (     597 calls)

     General routines
     calbec       :      1.47s CPU      1.49s WALL (     937 calls)
     fft          :      0.10s CPU      0.10s WALL (     114 calls)
     ffts         :      0.01s CPU      0.01s WALL (       8 calls)
     fftw         :      7.11s CPU      7.25s WALL (   14560 calls)


     PWSCF        :     13.94s CPU     14.25s WALL


   This run was terminated on:  19: 7: 0   7Jan2026            

=------------------------------------------------------------------------------=
   JOB DONE.
=------------------------------------------------------------------------------=
