
     Program PWSCF v.7.5 starts on 19Jan2026 at 11: 8:28 

     This program is part of the open-source Quantum ESPRESSO suite
     for quantum simulation of materials; please cite
         "P. Giannozzi et al., J. Phys.:Condens. Matter 21 395502 (2009);
         "P. Giannozzi et al., J. Phys.:Condens. Matter 29 465901 (2017);
         "P. Giannozzi et al., J. Chem. Phys. 152 154105 (2020);
          URL http://www.quantum-espresso.org", 
     in publications or presentations arising from this work. More details at
     http://www.quantum-espresso.org/quote

     Serial version
     476 MiB available memory on the printing compute node when the environment starts

     Waiting for input...
     Reading input from standard input

     Current dimensions of program PWSCF are:
     Max number of different atomic species (ntypx) = 10
     Max number of k-points (npk) =  40000
     Max angular momentum in pseudopotentials (lmaxx) =  4


     G-vector sticks info
     --------------------
     sticks:   dense  smooth     PW     G-vecs:    dense   smooth      PW
     Sum        1281    1281    373                34265    34265    5449

     Using Slab Decomposition



     bravais-lattice index     =            1
     lattice parameter (alat)  =      10.0000  a.u.
     unit-cell volume          =    1000.0000 (a.u.)^3
     number of atoms/cell      =           14
     number of atomic types    =            3
     number of electrons       =        62.00
     number of Kohn-Sham states=           37
     kinetic-energy cutoff     =      40.0000  Ry
     charge density cutoff     =     160.0000  Ry
     scf convergence threshold =      1.0E-05
     mixing beta               =       0.7000
     number of iterations used =            8  plain     mixing
     Exchange-correlation= PBE
                           (   1   4   3   4   0   0   0)

     celldm(1)=  10.000000  celldm(2)=   0.000000  celldm(3)=   0.000000
     celldm(4)=   0.000000  celldm(5)=   0.000000  celldm(6)=   0.000000

     crystal axes: (cart. coord. in units of alat)
               a(1) = (   1.000000   0.000000   0.000000 )  
               a(2) = (   0.000000   1.000000   0.000000 )  
               a(3) = (   0.000000   0.000000   1.000000 )  

     reciprocal axes: (cart. coord. in units 2 pi/alat)
               b(1) = (  1.000000  0.000000  0.000000 )  
               b(2) = (  0.000000  1.000000  0.000000 )  
               b(3) = (  0.000000  0.000000  1.000000 )  


     PseudoPot. # 1 for Ca read from file:
     ./PSEUDO/Ca.upf
     MD5 check sum: 70c88f1a6e4e81b49168c3af07036c03
     Pseudo is Norm-conserving + core correction, Zval = 10.0
     Generated using ONCVPSP code by D. R. Hamann
     Using radial grid of 1766 points,  6 beta functions with: 
                l(1) =   0
                l(2) =   0
                l(3) =   1
                l(4) =   1
                l(5) =   2
                l(6) =   2

     PseudoPot. # 2 for B  read from file:
     ./PSEUDO/B.upf
     MD5 check sum: 72f82fc31bc892420d0cab7e25c88ab8
     Pseudo is Norm-conserving + core correction, Zval =  3.0
     Generated using ONCVPSP code by D. R. Hamann
     Using radial grid of 1534 points,  4 beta functions with: 
                l(1) =   0
                l(2) =   0
                l(3) =   1
                l(4) =   1

     PseudoPot. # 3 for C  read from file:
     ./PSEUDO/C.upf
     MD5 check sum: 34a24e64c0a39f27c6c36b90a16ac686
     Pseudo is Norm-conserving + core correction, Zval =  4.0
     Generated using ONCVPSP code by D. R. Hamann
     Using radial grid of 1248 points,  4 beta functions with: 
                l(1) =   0
                l(2) =   0
                l(3) =   1
                l(4) =   1

     atomic species   valence    mass     pseudopotential
     Ca               10.00    40.07800     Ca( 1.00)
     B                 3.00    10.81100     B ( 1.00)
     C                 4.00    12.01100     C ( 1.00)

     48 Sym. Ops., with inversion, found (24 have fractional translation)



   Cartesian axes

     site n.     atom                  positions (alat units)
         1        Ca     tau(   1) = (   0.0000000   0.0000000   0.0000000  )
         2        Ca     tau(   2) = (   0.5000000   0.5000000   0.5000000  )
         3        B      tau(   3) = (   0.2500000   0.0000000   0.5000000  )
         4        B      tau(   4) = (   0.7500000   0.0000000   0.5000000  )
         5        B      tau(   5) = (   0.5000000   0.2500000   0.0000000  )
         6        B      tau(   6) = (   0.5000000   0.7500000   0.0000000  )
         7        B      tau(   7) = (   0.0000000   0.5000000   0.2500000  )
         8        B      tau(   8) = (   0.0000000   0.5000000   0.7500000  )
         9        C      tau(   9) = (   0.2500000   0.5000000   0.0000000  )
        10        C      tau(  10) = (   0.7500000   0.5000000   0.0000000  )
        11        C      tau(  11) = (   0.0000000   0.2500000   0.5000000  )
        12        C      tau(  12) = (   0.0000000   0.7500000   0.5000000  )
        13        C      tau(  13) = (   0.5000000   0.0000000   0.2500000  )
        14        C      tau(  14) = (   0.5000000   0.0000000   0.7500000  )

     number of k points=     4  Methfessel-Paxton smearing, width (Ry)=  0.0400
                       cart. coord. in units 2pi/alat
        k(    1) = (   0.0000000   0.0000000   0.0000000), wk =   0.2500000
        k(    2) = (   0.0000000   0.0000000  -0.5000000), wk =   0.7500000
        k(    3) = (   0.0000000  -0.5000000  -0.5000000), wk =   0.7500000
        k(    4) = (  -0.5000000  -0.5000000  -0.5000000), wk =   0.2500000

     Dense  grid:    34265 G-vectors     FFT dimensions: (  48,  48,  48)

     Estimated max dynamical RAM per process >      57.62 MB

     Check: negative core charge=   -0.000001

     Initial potential from superposition of free atoms

     starting charge      61.9884, renormalised to      62.0000
     Starting wfcs are   58 randomized atomic wfcs

     total cpu time spent up to now is        2.0 secs

     Self-consistent Calculation

     iteration #  1     ecut=    40.00 Ry     beta= 0.70
     Davidson diagonalization with overlap
     ethr =  1.00E-02,  avg # of iterations =  3.2

     total cpu time spent up to now is        3.4 secs

     total energy              =    -261.39313497 Ry
     estimated scf accuracy    <       0.64928230 Ry

     iteration #  2     ecut=    40.00 Ry     beta= 0.70
     Davidson diagonalization with overlap
     ethr =  1.05E-03,  avg # of iterations =  5.8

     total cpu time spent up to now is        5.2 secs

     total energy              =    -261.61391119 Ry
     estimated scf accuracy    <       0.25130963 Ry

     iteration #  3     ecut=    40.00 Ry     beta= 0.70
     Davidson diagonalization with overlap
     ethr =  4.05E-04,  avg # of iterations =  5.5

     total cpu time spent up to now is        6.8 secs

     total energy              =    -261.66589552 Ry
     estimated scf accuracy    <       0.00506525 Ry

     iteration #  4     ecut=    40.00 Ry     beta= 0.70
     Davidson diagonalization with overlap
     c_bands:  1 eigenvalues not converged
     ethr =  8.17E-06,  avg # of iterations = 13.2

     total cpu time spent up to now is        9.8 secs

     total energy              =    -261.67236459 Ry
     estimated scf accuracy    <       0.00527073 Ry

     iteration #  5     ecut=    40.00 Ry     beta= 0.70
     Davidson diagonalization with overlap
     ethr =  8.17E-06,  avg # of iterations =  3.8

     total cpu time spent up to now is       11.3 secs

     total energy              =    -261.67394789 Ry
     estimated scf accuracy    <       0.00146898 Ry

     iteration #  6     ecut=    40.00 Ry     beta= 0.70
     Davidson diagonalization with overlap
     c_bands:  1 eigenvalues not converged
     ethr =  2.37E-06,  avg # of iterations =  7.0

     total cpu time spent up to now is       12.8 secs

     End of self-consistent calculation

          k = 0.0000 0.0000 0.0000 (  4337 PWs)   bands (ev):

   -32.8723 -32.8546 -13.9758 -13.9758 -13.9758 -13.9484 -13.9484 -13.9484
    -5.9153  -3.8090  -3.8090  -1.2805  -1.2805  -1.2805   0.5287   0.5287
     1.6028   1.8529   1.8529   1.8529   4.6092   4.6092   4.6092   6.1496
     6.1496   6.1496   6.1788   6.1788   6.1788   9.0427   9.0427   9.0427
    11.3696  11.3696  11.3696  12.4707  12.8542

          k = 0.0000 0.0000-0.5000 (  4292 PWs)   bands (ev):

   -32.8582 -32.8582 -13.9745 -13.9745 -13.9616 -13.9616 -13.9610 -13.9610
    -5.0035  -5.0035  -2.9103  -2.9103  -1.2192  -1.2192   0.4878   0.4878
     1.4541   1.4541   3.8551   3.8551   5.0099   5.0099   5.3044   5.3044
     5.3607   5.3608   5.4755   5.4755   7.8101   7.8101   8.3157   8.3157
    10.2324  10.2326  11.6552  11.6555  12.4092

          k = 0.0000-0.5000-0.5000 (  4260 PWs)   bands (ev):

   -32.8537 -32.8537 -13.9965 -13.9962 -13.9605 -13.9605 -13.9505 -13.9499
    -4.5108  -4.3209  -3.7122  -3.7122  -2.1253  -1.2063   0.2588   1.6262
     3.3369   3.3369   3.7725   3.7725   3.8780   3.8780   4.4157   4.5415
     4.9366   5.5889   6.5011   6.5011   7.2157   7.2158   7.8279   8.2844
    10.3676  10.3678  11.4692  11.6215  12.0157

          k =-0.5000-0.5000-0.5000 (  4272 PWs)   bands (ev):

   -32.8557 -32.8557 -13.9723 -13.9723 -13.9723 -13.9723 -13.9723 -13.9723
    -3.5387  -3.5387  -3.5387  -3.5387  -3.5387  -3.5387   2.1997   2.1997
     4.0250   4.0250   4.0250   4.0250   4.0250   4.0250   5.4032   5.4032
     5.4032   5.4032   5.4032   5.4032   6.0489   6.0489   6.0489   6.0489
    12.3537  12.3539  12.3541  12.3550  12.3559

     the Fermi energy is     8.2725 ev

!    total energy              =    -261.67421900 Ry
     estimated scf accuracy    <       0.00000760 Ry
     smearing contrib. (-TS)   =      -0.00698090 Ry
     internal energy E=F+TS    =    -261.66723809 Ry

     The total energy is F=E-TS. E is the sum of the following terms:
     one-electron contribution =     -16.89448888 Ry
     hartree contribution      =      37.11620945 Ry
     xc contribution           =     -67.66409784 Ry
     ewald contribution        =    -214.22486082 Ry

     convergence has been achieved in   6 iterations

     Forces acting on atoms (cartesian axes, Ry/au):

     atom    1 type  1   force =     0.00000000    0.00000000    0.00000000
     atom    2 type  1   force =     0.00000000    0.00000000    0.00000000
     atom    3 type  2   force =     0.00000000    0.00000000    0.00000000
     atom    4 type  2   force =    -0.00000000    0.00000000    0.00000000
     atom    5 type  2   force =     0.00000000   -0.00000000   -0.00000000
     atom    6 type  2   force =     0.00000000    0.00000000    0.00000000
     atom    7 type  2   force =     0.00000000    0.00000000   -0.00000000
     atom    8 type  2   force =     0.00000000    0.00000000    0.00000000
     atom    9 type  3   force =     0.00000000    0.00000000    0.00000000
     atom   10 type  3   force =    -0.00000000    0.00000000    0.00000000
     atom   11 type  3   force =     0.00000000   -0.00000000    0.00000000
     atom   12 type  3   force =     0.00000000    0.00000000    0.00000000
     atom   13 type  3   force =     0.00000000    0.00000000    0.00000000
     atom   14 type  3   force =     0.00000000    0.00000000   -0.00000000

     Total force =     0.000000     Total SCF correction =     0.000000


     Computing stress (Cartesian axis) and pressure

          total   stress  (Ry/bohr**3)                   (kbar)     P=     -533.71
  -0.00362806   0.00000000   0.00000000         -533.71        0.00        0.00
   0.00000000  -0.00362806   0.00000000            0.00     -533.71        0.00
   0.00000000   0.00000000  -0.00362806            0.00        0.00     -533.71


     Writing all to output data dir ./tmp/CaB3C3.save/ :
     XML data file, charge density, pseudopotentials, collected wavefunctions

     init_run     :      1.81s CPU      1.90s WALL (       1 calls)
     electrons    :     10.68s CPU     10.83s WALL (       1 calls)
     forces       :      0.39s CPU      0.40s WALL (       1 calls)
     stress       :      1.26s CPU      1.28s WALL (       1 calls)

     Called by init_run:
     wfcinit      :      1.42s CPU      1.48s WALL (       1 calls)
     potinit      :      0.14s CPU      0.17s WALL (       1 calls)
     hinit0       :      0.22s CPU      0.23s WALL (       1 calls)

     Called by electrons:
     c_bands      :      9.84s CPU      9.95s WALL (       6 calls)
     sum_band     :      0.65s CPU      0.66s WALL (       6 calls)
     v_of_rho     :      0.23s CPU      0.26s WALL (       7 calls)
     mix_rho      :      0.02s CPU      0.02s WALL (       6 calls)

     Called by c_bands:
     init_us_2    :      0.14s CPU      0.16s WALL (      60 calls)
     cegterg      :      9.66s CPU      9.76s WALL (      24 calls)

     Called by *egterg:
     cdiaghg      :      0.19s CPU      0.20s WALL (     178 calls)
     h_psi        :      7.73s CPU      7.84s WALL (     182 calls)
     g_psi        :      0.02s CPU      0.02s WALL (     154 calls)

     Called by h_psi:
     h_psi:calbec :      1.85s CPU      1.86s WALL (     182 calls)
     vloc_psi     :      4.28s CPU      4.36s WALL (     182 calls)
                                        0.00s GPU  (     182 calls)
     add_vuspsi   :      1.58s CPU      1.58s WALL (     182 calls)

     General routines
     calbec       :      3.20s CPU      3.20s WALL (     250 calls)
     fft          :      0.14s CPU      0.14s WALL (      94 calls)
     ffts         :      0.01s CPU      0.01s WALL (       6 calls)
     fftw         :      4.31s CPU      4.39s WALL (    7120 calls)


     PWSCF        :     14.24s CPU     14.51s WALL


   This run was terminated on:  11: 8:42  19Jan2026            

=------------------------------------------------------------------------------=
   JOB DONE.
=------------------------------------------------------------------------------=
