
     Program PWSCF v.7.5 starts on 19Jan2026 at 10: 8:52 

     This program is part of the open-source Quantum ESPRESSO suite
     for quantum simulation of materials; please cite
         "P. Giannozzi et al., J. Phys.:Condens. Matter 21 395502 (2009);
         "P. Giannozzi et al., J. Phys.:Condens. Matter 29 465901 (2017);
         "P. Giannozzi et al., J. Chem. Phys. 152 154105 (2020);
          URL http://www.quantum-espresso.org", 
     in publications or presentations arising from this work. More details at
     http://www.quantum-espresso.org/quote

     Serial version
     2254 MiB available memory on the printing compute node when the environment starts

     Waiting for input...
     Reading input from standard input

     Current dimensions of program PWSCF are:
     Max number of different atomic species (ntypx) = 10
     Max number of k-points (npk) =  40000
     Max angular momentum in pseudopotentials (lmaxx) =  4


     G-vector sticks info
     --------------------
     sticks:   dense  smooth     PW     G-vecs:    dense   smooth      PW
     Sum         989     989    293                23583    23583    3887

     Using Slab Decomposition



     bravais-lattice index     =            1
     lattice parameter (alat)  =       8.8254  a.u.
     unit-cell volume          =     687.3905 (a.u.)^3
     number of atoms/cell      =           14
     number of atomic types    =            3
     number of electrons       =        62.00
     number of Kohn-Sham states=           37
     kinetic-energy cutoff     =      40.0000  Ry
     charge density cutoff     =     160.0000  Ry
     scf convergence threshold =      1.0E-05
     mixing beta               =       0.7000
     number of iterations used =            8  plain     mixing
     energy convergence thresh.=      1.0E-04
     force convergence thresh. =      1.0E-03
     press convergence thresh. =      5.0E-01
     Exchange-correlation= PBE
                           (   1   4   3   4   0   0   0)
     nstep                     =           50


     celldm(1)=   8.825402  celldm(2)=   0.000000  celldm(3)=   0.000000
     celldm(4)=   0.000000  celldm(5)=   0.000000  celldm(6)=   0.000000

     crystal axes: (cart. coord. in units of alat)
               a(1) = (   1.000000   0.000000   0.000000 )  
               a(2) = (   0.000000   1.000000   0.000000 )  
               a(3) = (   0.000000   0.000000   1.000000 )  

     reciprocal axes: (cart. coord. in units 2 pi/alat)
               b(1) = (  1.000000  0.000000  0.000000 )  
               b(2) = (  0.000000  1.000000  0.000000 )  
               b(3) = (  0.000000  0.000000  1.000000 )  


     PseudoPot. # 1 for Ca read from file:
     ./PSEUDO/Ca.upf
     MD5 check sum: 70c88f1a6e4e81b49168c3af07036c03
     Pseudo is Norm-conserving + core correction, Zval = 10.0
     Generated using ONCVPSP code by D. R. Hamann
     Using radial grid of 1766 points,  6 beta functions with: 
                l(1) =   0
                l(2) =   0
                l(3) =   1
                l(4) =   1
                l(5) =   2
                l(6) =   2

     PseudoPot. # 2 for B  read from file:
     ./PSEUDO/B.upf
     MD5 check sum: 72f82fc31bc892420d0cab7e25c88ab8
     Pseudo is Norm-conserving + core correction, Zval =  3.0
     Generated using ONCVPSP code by D. R. Hamann
     Using radial grid of 1534 points,  4 beta functions with: 
                l(1) =   0
                l(2) =   0
                l(3) =   1
                l(4) =   1

     PseudoPot. # 3 for C  read from file:
     ./PSEUDO/C.upf
     MD5 check sum: 34a24e64c0a39f27c6c36b90a16ac686
     Pseudo is Norm-conserving + core correction, Zval =  4.0
     Generated using ONCVPSP code by D. R. Hamann
     Using radial grid of 1248 points,  4 beta functions with: 
                l(1) =   0
                l(2) =   0
                l(3) =   1
                l(4) =   1

     atomic species   valence    mass     pseudopotential
     Ca               10.00    40.07800     Ca( 1.00)
     B                 3.00    10.81100     B ( 1.00)
     C                 4.00    12.01100     C ( 1.00)

     48 Sym. Ops., with inversion, found (24 have fractional translation)



   Cartesian axes

     site n.     atom                  positions (alat units)
         1        Ca     tau(   1) = (   0.0000000   0.0000000   0.0000000  )
         2        Ca     tau(   2) = (   0.5000000   0.5000000   0.5000000  )
         3        B      tau(   3) = (   0.2500000   0.0000000   0.5000000  )
         4        B      tau(   4) = (   0.7500000   0.0000000   0.5000000  )
         5        B      tau(   5) = (   0.5000000   0.2500000   0.0000000  )
         6        B      tau(   6) = (   0.5000000   0.7500000   0.0000000  )
         7        B      tau(   7) = (   0.0000000   0.5000000   0.2500000  )
         8        B      tau(   8) = (   0.0000000   0.5000000   0.7500000  )
         9        C      tau(   9) = (   0.2500000   0.5000000   0.0000000  )
        10        C      tau(  10) = (   0.7500000   0.5000000   0.0000000  )
        11        C      tau(  11) = (   0.0000000   0.2500000   0.5000000  )
        12        C      tau(  12) = (   0.0000000   0.7500000   0.5000000  )
        13        C      tau(  13) = (   0.5000000   0.0000000   0.2500000  )
        14        C      tau(  14) = (   0.5000000   0.0000000   0.7500000  )

     number of k points=     4  Methfessel-Paxton smearing, width (Ry)=  0.0400
                       cart. coord. in units 2pi/alat
        k(    1) = (   0.0000000   0.0000000   0.0000000), wk =   0.2500000
        k(    2) = (   0.0000000   0.0000000  -0.5000000), wk =   0.7500000
        k(    3) = (   0.0000000  -0.5000000  -0.5000000), wk =   0.7500000
        k(    4) = (  -0.5000000  -0.5000000  -0.5000000), wk =   0.2500000

     Dense  grid:    23583 G-vectors     FFT dimensions: (  36,  36,  36)

     Estimated max dynamical RAM per process >      41.71 MB

     Check: negative core charge=   -0.000001

     Initial potential from superposition of free atoms

     starting charge      61.9884, renormalised to      62.0000
     Starting wfcs are   58 randomized atomic wfcs

     total cpu time spent up to now is        1.5 secs

     Self-consistent Calculation

     iteration #  1     ecut=    40.00 Ry     beta= 0.70
     Davidson diagonalization with overlap
     ethr =  1.00E-02,  avg # of iterations =  4.2

     total cpu time spent up to now is        2.4 secs

     total energy              =    -261.74401204 Ry
     estimated scf accuracy    <       0.96485447 Ry

     iteration #  2     ecut=    40.00 Ry     beta= 0.70
     Davidson diagonalization with overlap
     ethr =  1.56E-03,  avg # of iterations =  6.2

     total cpu time spent up to now is        3.4 secs

     total energy              =    -262.03409991 Ry
     estimated scf accuracy    <       0.17599290 Ry

     iteration #  3     ecut=    40.00 Ry     beta= 0.70
     Davidson diagonalization with overlap
     ethr =  2.84E-04,  avg # of iterations =  3.2

     total cpu time spent up to now is        4.2 secs

     total energy              =    -262.07404840 Ry
     estimated scf accuracy    <       0.00237329 Ry

     iteration #  4     ecut=    40.00 Ry     beta= 0.70
     Davidson diagonalization with overlap
     c_bands:  2 eigenvalues not converged
     ethr =  3.83E-06,  avg # of iterations = 11.2

     total cpu time spent up to now is        5.7 secs

     total energy              =    -262.07767133 Ry
     estimated scf accuracy    <       0.00287177 Ry

     iteration #  5     ecut=    40.00 Ry     beta= 0.70
     Davidson diagonalization with overlap
     ethr =  3.83E-06,  avg # of iterations =  4.0

     total cpu time spent up to now is        6.4 secs

     total energy              =    -262.07784549 Ry
     estimated scf accuracy    <       0.00024019 Ry

     iteration #  6     ecut=    40.00 Ry     beta= 0.70
     Davidson diagonalization with overlap
     ethr =  3.87E-07,  avg # of iterations =  8.8

     total cpu time spent up to now is        7.6 secs

     total energy              =    -262.07794738 Ry
     estimated scf accuracy    <       0.00033534 Ry

     iteration #  7     ecut=    40.00 Ry     beta= 0.70
     Davidson diagonalization with overlap
     ethr =  3.87E-07,  avg # of iterations =  2.0

     total cpu time spent up to now is        8.3 secs

     total energy              =    -262.07798766 Ry
     estimated scf accuracy    <       0.00001241 Ry

     iteration #  8     ecut=    40.00 Ry     beta= 0.70
     Davidson diagonalization with overlap
     ethr =  2.00E-08,  avg # of iterations =  5.0

     total cpu time spent up to now is        9.4 secs

     total energy              =    -262.07799865 Ry
     estimated scf accuracy    <       0.00001166 Ry

     iteration #  9     ecut=    40.00 Ry     beta= 0.70
     Davidson diagonalization with overlap
     ethr =  1.88E-08,  avg # of iterations =  2.0

     total cpu time spent up to now is       10.0 secs

     End of self-consistent calculation

          k = 0.0000 0.0000 0.0000 (  2945 PWs)   bands (ev):

   -27.0052 -26.9705  -8.4233  -8.4233  -8.4233  -8.2437  -8.2437  -8.2437
    -3.8903  -1.1760  -1.1760   2.4411   2.4411   2.4411   3.3119   3.3119
     4.0925   5.9319   5.9319   5.9319   7.7464   7.7464   7.7464  10.1535
    10.1535  10.1535  10.3283  10.3283  10.3283  14.4320  14.4320  14.4320
    18.4120  18.4120  18.4123  19.3497  19.3499

          k = 0.0000 0.0000-0.5000 (  2906 PWs)   bands (ev):

   -26.9783 -26.9783  -8.4704  -8.4704  -8.3301  -8.3301  -8.3246  -8.3246
    -2.4697  -2.4697  -0.0580  -0.0580   2.4800   2.4800   3.3931   3.3931
     4.8817   4.8817   7.1972   7.1972   8.7764   8.7764   8.9910   8.9910
     9.6186   9.6186  10.0779  10.0779  12.5246  12.5246  13.3081  13.3081
    16.2966  16.2967  17.2641  17.2641  18.2959

          k = 0.0000-0.5000-0.5000 (  2968 PWs)   bands (ev):

   -26.9877 -26.9877  -8.6222  -8.6219  -8.3202  -8.3202  -8.2727  -8.2650
    -1.5960  -1.3427  -1.1758  -1.1758   1.0994   2.4176   3.2815   5.0301
     6.4099   6.4099   7.3123   7.3123   7.9673   7.9673   8.7276   8.7471
     8.9900   9.8057  10.7943  10.7943  11.6542  11.6542  12.5527  13.2764
    15.9032  15.9032  16.9379  17.5256  17.5975

          k =-0.5000-0.5000-0.5000 (  3016 PWs)   bands (ev):

   -26.9954 -26.9954  -8.4363  -8.4363  -8.4363  -8.4363  -8.4363  -8.4363
    -0.5896  -0.5896  -0.5896  -0.5896  -0.5896  -0.5896   4.9246   4.9246
     8.6889   8.6889   8.6889   8.6889   8.6889   8.6889   9.1159   9.1159
     9.1159   9.1159   9.1159   9.1159   9.8031   9.8031   9.8031   9.8031
    18.1993  18.1993  18.2710  18.2758  18.2768

     the Fermi energy is    13.2399 ev

!    total energy              =    -262.07799724 Ry
     estimated scf accuracy    <       0.00000270 Ry
     smearing contrib. (-TS)   =      -0.00634332 Ry
     internal energy E=F+TS    =    -262.07165391 Ry

     The total energy is F=E-TS. E is the sum of the following terms:
     one-electron contribution =      22.57782848 Ry
     hartree contribution      =      29.05321152 Ry
     xc contribution           =     -70.96603851 Ry
     ewald contribution        =    -242.73665541 Ry

     convergence has been achieved in   9 iterations

     Forces acting on atoms (cartesian axes, Ry/au):

     atom    1 type  1   force =     0.00000000    0.00000000    0.00000000
     atom    2 type  1   force =     0.00000000    0.00000000    0.00000000
     atom    3 type  2   force =    -0.00000000    0.00000000    0.00000000
     atom    4 type  2   force =     0.00000000    0.00000000    0.00000000
     atom    5 type  2   force =     0.00000000   -0.00000000    0.00000000
     atom    6 type  2   force =     0.00000000    0.00000000    0.00000000
     atom    7 type  2   force =     0.00000000    0.00000000    0.00000000
     atom    8 type  2   force =     0.00000000    0.00000000    0.00000000
     atom    9 type  3   force =    -0.00000000    0.00000000    0.00000000
     atom   10 type  3   force =     0.00000000    0.00000000    0.00000000
     atom   11 type  3   force =     0.00000000   -0.00000000    0.00000000
     atom   12 type  3   force =     0.00000000    0.00000000    0.00000000
     atom   13 type  3   force =     0.00000000    0.00000000    0.00000000
     atom   14 type  3   force =     0.00000000    0.00000000    0.00000000

     Total force =     0.000000     Total SCF correction =     0.000000


     Computing stress (Cartesian axis) and pressure

          total   stress  (Ry/bohr**3)                   (kbar)     P=      -13.88
  -0.00009436   0.00000000   0.00000000          -13.88        0.00        0.00
   0.00000000  -0.00009436   0.00000000            0.00      -13.88        0.00
   0.00000000   0.00000000  -0.00009436            0.00        0.00      -13.88


     BFGS Geometry Optimization
     Energy error            =      4.6E-04 Ry
     Gradient error          =      6.2E-32 Ry/Bohr
     Cell gradient error     =      1.4E+01 kbar

     number of scf cycles    =   1
     number of bfgs steps    =   0

     enthalpy           new  =    -262.0779972360 Ry

     new trust radius        =       0.0123693886 bohr
     new conv_thr            =       0.0000100000 Ry

     new unit-cell volume =    682.53743 a.u.^3 (   101.14161 Ang^3 )
     density =      3.56414 g/cm^3

CELL_PARAMETERS (alat=  8.82540224)
   0.997641062   0.000000000   0.000000000
   0.000000000   0.997641062   0.000000000
   0.000000000   0.000000000   0.997641062

ATOMIC_POSITIONS (crystal)
Ca               0.0000000000        0.0000000000        0.0000000000
Ca               0.5000000000        0.5000000000        0.5000000000
B                0.2500000000        0.0000000000        0.5000000000
B                0.7500000000        0.0000000000        0.5000000000
B                0.5000000000        0.2500000000        0.0000000000
B                0.5000000000        0.7500000000        0.0000000000
B                0.0000000000        0.5000000000        0.2500000000
B                0.0000000000        0.5000000000        0.7500000000
C                0.2500000000        0.5000000000        0.0000000000
C                0.7500000000        0.5000000000        0.0000000000
C                0.0000000000        0.2500000000        0.5000000000
C                0.0000000000        0.7500000000        0.5000000000
C                0.5000000000        0.0000000000        0.2500000000
C                0.5000000000        0.0000000000        0.7500000000



     Writing config-only to output data dir ./tmp/CaB3C3.save/ :
     XML data file
     NEW-OLD atomic charge density approx. for the potential
     New effective cutoffs (rho, wfc):  160.42   40.10

     Check: negative core charge=   -0.000001

     total cpu time spent up to now is       11.1 secs

     Self-consistent Calculation

     iteration #  1     ecut=    40.00 Ry     beta= 0.70
     Davidson diagonalization with overlap
     ethr =  1.00E-06,  avg # of iterations =  3.0

     Threshold (ethr) on eigenvalues was too large:
     Diagonalizing with lowered threshold

     Davidson diagonalization with overlap
     ethr =  5.15E-08,  avg # of iterations =  2.0

     total cpu time spent up to now is       12.7 secs

     total energy              =    -262.07807904 Ry
     estimated scf accuracy    <       0.00002893 Ry

     iteration #  2     ecut=    40.00 Ry     beta= 0.70
     Davidson diagonalization with overlap
     ethr =  4.67E-08,  avg # of iterations =  4.0

     total cpu time spent up to now is       13.5 secs

     End of self-consistent calculation

          k = 0.0000 0.0000 0.0000 (  2945 PWs)   bands (ev):

   -26.8957 -26.8602  -8.3191  -8.3191  -8.3191  -8.1336  -8.1336  -8.1336
    -3.8379  -1.1133  -1.1133   2.5285   2.5285   2.5285   3.3757   3.3757
     4.1515   6.0266   6.0266   6.0266   7.8149   7.8149   7.8149  10.2411
    10.2411  10.2411  10.4239  10.4239  10.4239  14.5539  14.5539  14.5539
    18.5675  18.5675  18.5677  19.4935  19.4937

          k = 0.0000 0.0000-0.5012 (  2906 PWs)   bands (ev):

   -26.8686 -26.8686  -8.3688  -8.3688  -8.2229  -8.2229  -8.2172  -8.2172
    -2.4029  -2.4029   0.0086   0.0086   2.5648   2.5648   3.4607   3.4607
     4.9598   4.9598   7.2726   7.2726   8.8522   8.8522   9.0829   9.0829
     9.7125   9.7125  10.1840  10.1840  12.6305  12.6305  13.4191  13.4191
    16.4241  16.4241  17.3793  17.3793  18.4150

          k = 0.0000-0.5012-0.5012 (  2968 PWs)   bands (ev):

   -26.8776 -26.8776  -8.5253  -8.5249  -8.2126  -8.2126  -8.1638  -8.1559
    -1.5181  -1.2636  -1.1152  -1.1152   1.1755   2.4989   3.3527   5.1051
     6.4781   6.4781   7.3927   7.3927   8.0605   8.0605   8.8233   8.8409
     9.0841   9.9020  10.8910  10.8910  11.7537  11.7537  12.6586  13.3884
    16.0201  16.0201  17.0447  17.6526  17.7080

          k =-0.5012-0.5012-0.5012 (  3016 PWs)   bands (ev):

   -26.8851 -26.8851  -8.3331  -8.3331  -8.3331  -8.3331  -8.3331  -8.3331
    -0.5152  -0.5152  -0.5152  -0.5152  -0.5152  -0.5152   4.9876   4.9876
     8.7899   8.7899   8.7899   8.7899   8.7899   8.7899   9.2029   9.2029
     9.2029   9.2029   9.2029   9.2029   9.8857   9.8857   9.8857   9.8857
    18.3176  18.3176  18.3934  18.3987  18.3997

     the Fermi energy is    13.3514 ev

!    total energy              =    -262.07808522 Ry
     estimated scf accuracy    <       0.00000352 Ry
     smearing contrib. (-TS)   =      -0.00639226 Ry
     internal energy E=F+TS    =    -262.07169296 Ry

     The total energy is F=E-TS. E is the sum of the following terms:
     one-electron contribution =      23.36573267 Ry
     hartree contribution      =      28.91000788 Ry
     xc contribution           =     -71.03682339 Ry
     ewald contribution        =    -243.31061012 Ry

     convergence has been achieved in   2 iterations

     Forces acting on atoms (cartesian axes, Ry/au):

     atom    1 type  1   force =     0.00000000    0.00000000    0.00000000
     atom    2 type  1   force =     0.00000000    0.00000000    0.00000000
     atom    3 type  2   force =     0.00000000    0.00000000    0.00000000
     atom    4 type  2   force =    -0.00000000    0.00000000    0.00000000
     atom    5 type  2   force =     0.00000000    0.00000000    0.00000000
     atom    6 type  2   force =     0.00000000    0.00000000    0.00000000
     atom    7 type  2   force =     0.00000000    0.00000000    0.00000000
     atom    8 type  2   force =     0.00000000    0.00000000    0.00000000
     atom    9 type  3   force =    -0.00000000   -0.00000000    0.00000000
     atom   10 type  3   force =     0.00000000   -0.00000000    0.00000000
     atom   11 type  3   force =     0.00000000    0.00000000   -0.00000000
     atom   12 type  3   force =     0.00000000   -0.00000000    0.00000000
     atom   13 type  3   force =     0.00000000    0.00000000    0.00000000
     atom   14 type  3   force =     0.00000000    0.00000000   -0.00000000

     Total force =     0.000000     Total SCF correction =     0.000000


     Computing stress (Cartesian axis) and pressure

          total   stress  (Ry/bohr**3)                   (kbar)     P=        9.49
   0.00006452   0.00000000   0.00000000            9.49        0.00        0.00
   0.00000000   0.00006452   0.00000000            0.00        9.49        0.00
   0.00000000   0.00000000   0.00006452            0.00        0.00        9.49

     Energy error            =      8.8E-05 Ry
     Gradient error          =      3.5E-31 Ry/Bohr
     Cell gradient error     =      9.5E+00 kbar

     number of scf cycles    =   2
     number of bfgs steps    =   1

     enthalpy           old  =    -262.0779972360 Ry
     enthalpy           new  =    -262.0780852176 Ry

     CASE: enthalpy          _new < enthalpy          _old

     new trust radius        =       0.0050031118 bohr
     new conv_thr            =       0.0000001000 Ry

     new unit-cell volume =    684.49994 a.u.^3 (   101.43243 Ang^3 )
     density =      3.55392 g/cm^3

CELL_PARAMETERS (alat=  8.82540224)
   0.998596322   0.000000000   0.000000000
   0.000000000   0.998596322   0.000000000
   0.000000000   0.000000000   0.998596322

ATOMIC_POSITIONS (crystal)
Ca               0.0000000000        0.0000000000        0.0000000000
Ca               0.5000000000        0.5000000000        0.5000000000
B                0.2500000000        0.0000000000        0.5000000000
B                0.7500000000        0.0000000000        0.5000000000
B                0.5000000000        0.2500000000        0.0000000000
B                0.5000000000        0.7500000000        0.0000000000
B                0.0000000000        0.5000000000        0.2500000000
B                0.0000000000        0.5000000000        0.7500000000
C                0.2500000000        0.5000000000        0.0000000000
C                0.7500000000        0.5000000000        0.0000000000
C                0.0000000000        0.2500000000        0.5000000000
C                0.0000000000        0.7500000000        0.5000000000
C                0.5000000000        0.0000000000        0.2500000000
C                0.5000000000        0.0000000000        0.7500000000



     Writing config-only to output data dir ./tmp/CaB3C3.save/ :
     XML data file
     NEW-OLD atomic charge density approx. for the potential
     New effective cutoffs (rho, wfc):  160.11   40.03

     Check: negative core charge=   -0.000001

     total cpu time spent up to now is       14.6 secs

     Self-consistent Calculation

     iteration #  1     ecut=    40.00 Ry     beta= 0.70
     Davidson diagonalization with overlap
     ethr =  1.00E-06,  avg # of iterations =  2.0

     Threshold (ethr) on eigenvalues was too large:
     Diagonalizing with lowered threshold

     Davidson diagonalization with overlap
     ethr =  5.57E-09,  avg # of iterations =  5.2

     total cpu time spent up to now is       16.3 secs

     total energy              =    -262.07814296 Ry
     estimated scf accuracy    <       0.00000250 Ry

     iteration #  2     ecut=    40.00 Ry     beta= 0.70
     Davidson diagonalization with overlap
     ethr =  4.02E-09,  avg # of iterations =  2.0

     total cpu time spent up to now is       17.0 secs

     End of self-consistent calculation

          k = 0.0000 0.0000 0.0000 (  2945 PWs)   bands (ev):

   -26.9352 -26.9000  -8.3570  -8.3570  -8.3570  -8.1737  -8.1737  -8.1737
    -3.8602  -1.1400  -1.1400   2.4923   2.4923   2.4923   3.3484   3.3484
     4.1262   5.9873   5.9873   5.9873   7.7867   7.7867   7.7867  10.2049
    10.2049  10.2049  10.3842  10.3842  10.3842  14.5030  14.5030  14.5030
    18.5038  18.5038  18.5039  19.4345  19.4347

          k = 0.0000 0.0000-0.5007 (  2906 PWs)   bands (ev):

   -26.9082 -26.9082  -8.4058  -8.4058  -8.2619  -8.2619  -8.2563  -8.2563
    -2.4307  -2.4307  -0.0197  -0.0197   2.5295   2.5295   3.4320   3.4320
     4.9276   4.9276   7.2411   7.2411   8.8210   8.8210   9.0449   9.0449
     9.6737   9.6737  10.1397  10.1397  12.5865  12.5865  13.3729  13.3729
    16.3727  16.3727  17.3341  17.3341  18.3686

          k = 0.0000-0.5007-0.5007 (  2968 PWs)   bands (ev):

   -26.9174 -26.9174  -8.5605  -8.5601  -8.2518  -8.2518  -8.2035  -8.1957
    -1.5504  -1.2963  -1.1408  -1.1408   1.1434   2.4649   3.3226   5.0740
     6.4498   6.4498   7.3596   7.3596   8.0218   8.0218   8.7832   8.8019
     9.0446   9.8618  10.8508  10.8508  11.7123  11.7123  12.6146  13.3417
    15.9734  15.9734  17.0033  17.6025  17.6653

          k =-0.5007-0.5007-0.5007 (  3016 PWs)   bands (ev):

   -26.9249 -26.9249  -8.3707  -8.3707  -8.3707  -8.3707  -8.3707  -8.3707
    -0.5463  -0.5463  -0.5463  -0.5463  -0.5463  -0.5463   4.9616   4.9616
     8.7477   8.7477   8.7477   8.7477   8.7477   8.7477   9.1666   9.1666
     9.1666   9.1666   9.1666   9.1666   9.8517   9.8517   9.8517   9.8517
    18.2717  18.2717  18.3447  18.3500  18.3510

     the Fermi energy is    13.3049 ev

!    total energy              =    -262.07814324 Ry
     estimated scf accuracy    <       0.00000005 Ry
     smearing contrib. (-TS)   =      -0.00637090 Ry
     internal energy E=F+TS    =    -262.07177235 Ry

     The total energy is F=E-TS. E is the sum of the following terms:
     one-electron contribution =      23.04786229 Ry
     hartree contribution      =      28.96597576 Ry
     xc contribution           =     -71.00775178 Ry
     ewald contribution        =    -243.07785862 Ry

     convergence has been achieved in   2 iterations

     Forces acting on atoms (cartesian axes, Ry/au):

     atom    1 type  1   force =     0.00000000    0.00000000    0.00000000
     atom    2 type  1   force =     0.00000000    0.00000000    0.00000000
     atom    3 type  2   force =    -0.00000000    0.00000000   -0.00000000
     atom    4 type  2   force =     0.00000000    0.00000000    0.00000000
     atom    5 type  2   force =     0.00000000    0.00000000   -0.00000000
     atom    6 type  2   force =     0.00000000   -0.00000000    0.00000000
     atom    7 type  2   force =     0.00000000    0.00000000   -0.00000000
     atom    8 type  2   force =    -0.00000000    0.00000000    0.00000000
     atom    9 type  3   force =    -0.00000000    0.00000000    0.00000000
     atom   10 type  3   force =     0.00000000    0.00000000    0.00000000
     atom   11 type  3   force =    -0.00000000    0.00000000   -0.00000000
     atom   12 type  3   force =    -0.00000000   -0.00000000   -0.00000000
     atom   13 type  3   force =     0.00000000    0.00000000   -0.00000000
     atom   14 type  3   force =     0.00000000    0.00000000    0.00000000

     Total force =     0.000000     Total SCF correction =     0.000000


     Computing stress (Cartesian axis) and pressure

          total   stress  (Ry/bohr**3)                   (kbar)     P=       -0.57
  -0.00000387   0.00000000   0.00000000           -0.57        0.00        0.00
   0.00000000  -0.00000387   0.00000000            0.00       -0.57        0.00
   0.00000000   0.00000000  -0.00000387            0.00        0.00       -0.57

     Energy error            =      5.8E-05 Ry
     Gradient error          =      7.2E-31 Ry/Bohr
     Cell gradient error     =      5.7E-01 kbar

     number of scf cycles    =   3
     number of bfgs steps    =   2

     enthalpy           old  =    -262.0780852176 Ry
     enthalpy           new  =    -262.0781432450 Ry

     CASE: enthalpy          _new < enthalpy          _old

     new trust radius        =       0.0002835366 bohr
     new conv_thr            =       0.0000001000 Ry

     new unit-cell volume =    684.38867 a.u.^3 (   101.41594 Ang^3 )
     density =      3.55450 g/cm^3

CELL_PARAMETERS (alat=  8.82540224)
   0.998542211   0.000000000   0.000000000
   0.000000000   0.998542211   0.000000000
   0.000000000   0.000000000   0.998542211

ATOMIC_POSITIONS (crystal)
Ca               0.0000000000        0.0000000000        0.0000000000
Ca               0.5000000000        0.5000000000        0.5000000000
B                0.2500000000        0.0000000000        0.5000000000
B                0.7500000000        0.0000000000        0.5000000000
B                0.5000000000        0.2500000000       -0.0000000000
B                0.5000000000        0.7500000000        0.0000000000
B                0.0000000000        0.5000000000        0.2500000000
B               -0.0000000000        0.5000000000        0.7500000000
C                0.2500000000        0.5000000000        0.0000000000
C                0.7500000000        0.5000000000        0.0000000000
C               -0.0000000000        0.2500000000        0.5000000000
C               -0.0000000000        0.7500000000        0.5000000000
C                0.5000000000        0.0000000000        0.2500000000
C                0.5000000000        0.0000000000        0.7500000000



     Writing config-only to output data dir ./tmp/CaB3C3.save/ :
     XML data file
     NEW-OLD atomic charge density approx. for the potential
     New effective cutoffs (rho, wfc):  160.13   40.03

     Check: negative core charge=   -0.000001

     total cpu time spent up to now is       18.0 secs

     Self-consistent Calculation

     iteration #  1     ecut=    40.00 Ry     beta= 0.70
     Davidson diagonalization with overlap
     ethr =  1.00E-06,  avg # of iterations =  1.0

     Threshold (ethr) on eigenvalues was too large:
     Diagonalizing with lowered threshold

     Davidson diagonalization with overlap
     ethr =  4.15E-11,  avg # of iterations =  5.2

     total cpu time spent up to now is       19.7 secs

     End of self-consistent calculation

          k = 0.0000 0.0000 0.0000 (  2945 PWs)   bands (ev):

   -26.9328 -26.8976  -8.3547  -8.3547  -8.3547  -8.1713  -8.1713  -8.1713
    -3.8591  -1.1387  -1.1387   2.4941   2.4941   2.4941   3.3498   3.3498
     4.1274   5.9892   5.9892   5.9892   7.7881   7.7881   7.7881  10.2067
    10.2067  10.2067  10.3863  10.3863  10.3863  14.5056  14.5056  14.5056
    18.5072  18.5072  18.5072  19.4376  19.4378

          k = 0.0000 0.0000-0.5007 (  2906 PWs)   bands (ev):

   -26.9058 -26.9058  -8.4036  -8.4036  -8.2596  -8.2596  -8.2539  -8.2539
    -2.4293  -2.4293  -0.0183  -0.0183   2.5313   2.5313   3.4334   3.4334
     4.9292   4.9292   7.2427   7.2427   8.8226   8.8226   9.0468   9.0468
     9.6756   9.6756  10.1419  10.1419  12.5887  12.5887  13.3752  13.3752
    16.3755  16.3755  17.3366  17.3367  18.3712

          k = 0.0000-0.5007-0.5007 (  2968 PWs)   bands (ev):

   -26.9149 -26.9149  -8.5584  -8.5580  -8.2494  -8.2494  -8.2011  -8.1932
    -1.5487  -1.2946  -1.1396  -1.1396   1.1450   2.4666   3.3241   5.0756
     6.4512   6.4512   7.3613   7.3613   8.0237   8.0237   8.7852   8.8039
     9.0466   9.8638  10.8529  10.8529  11.7144  11.7144  12.6168  13.3441
    15.9760  15.9760  17.0057  17.6052  17.6677

          k =-0.5007-0.5007-0.5007 (  3016 PWs)   bands (ev):

   -26.9225 -26.9225  -8.3684  -8.3684  -8.3684  -8.3684  -8.3684  -8.3684
    -0.5447  -0.5447  -0.5447  -0.5447  -0.5447  -0.5447   4.9629   4.9629
     8.7499   8.7499   8.7499   8.7499   8.7499   8.7499   9.1684   9.1684
     9.1684   9.1684   9.1684   9.1684   9.8535   9.8535   9.8535   9.8535
    18.2744  18.2744  18.3471  18.3526  18.3537

     the Fermi energy is    13.3073 ev

!    total energy              =    -262.07814342 Ry
     estimated scf accuracy    <       0.00000003 Ry
     smearing contrib. (-TS)   =      -0.00637184 Ry
     internal energy E=F+TS    =    -262.07177158 Ry

     The total energy is F=E-TS. E is the sum of the following terms:
     one-electron contribution =      23.06597880 Ry
     hartree contribution      =      28.96281951 Ry
     xc contribution           =     -71.00953898 Ry
     ewald contribution        =    -243.09103092 Ry

     convergence has been achieved in   1 iterations

     Forces acting on atoms (cartesian axes, Ry/au):

     atom    1 type  1   force =     0.00000000    0.00000000    0.00000000
     atom    2 type  1   force =     0.00000000    0.00000000    0.00000000
     atom    3 type  2   force =     0.00000000    0.00000000   -0.00000000
     atom    4 type  2   force =     0.00000000   -0.00000000   -0.00000000
     atom    5 type  2   force =     0.00000000    0.00000000    0.00000000
     atom    6 type  2   force =     0.00000000    0.00000000    0.00000000
     atom    7 type  2   force =     0.00000000    0.00000000    0.00000000
     atom    8 type  2   force =     0.00000000    0.00000000    0.00000000
     atom    9 type  3   force =     0.00000000    0.00000000    0.00000000
     atom   10 type  3   force =    -0.00000000    0.00000000    0.00000000
     atom   11 type  3   force =    -0.00000000   -0.00000000   -0.00000000
     atom   12 type  3   force =    -0.00000000   -0.00000000   -0.00000000
     atom   13 type  3   force =    -0.00000000    0.00000000   -0.00000000
     atom   14 type  3   force =    -0.00000000   -0.00000000    0.00000000

     Total force =     0.000000     Total SCF correction =     0.000000


     Computing stress (Cartesian axis) and pressure

          total   stress  (Ry/bohr**3)                   (kbar)     P=        0.11
   0.00000075   0.00000000   0.00000000            0.11        0.00        0.00
   0.00000000   0.00000075   0.00000000            0.00        0.11        0.00
   0.00000000   0.00000000   0.00000075            0.00        0.00        0.11

     Energy error            =      1.8E-07 Ry
     Gradient error          =      4.9E-31 Ry/Bohr
     Cell gradient error     =      1.1E-01 kbar

     bfgs converged in   4 scf cycles and   3 bfgs steps
     (criteria: energy <  1.0E-04 Ry, force <  1.0E-03 Ry/Bohr, cell <  5.0E-01 kbar)

     End of BFGS Geometry Optimization

     Final enthalpy           =    -262.0781434250 Ry

     File ./tmp/CaB3C3.bfgs deleted, as requested
Begin final coordinates
     new unit-cell volume =    684.38867 a.u.^3 (   101.41594 Ang^3 )
     density =      3.55450 g/cm^3

CELL_PARAMETERS (alat=  8.82540224)
   0.998542211   0.000000000   0.000000000
   0.000000000   0.998542211   0.000000000
   0.000000000   0.000000000   0.998542211

ATOMIC_POSITIONS (crystal)
Ca               0.0000000000        0.0000000000        0.0000000000
Ca               0.5000000000        0.5000000000        0.5000000000
B                0.2500000000        0.0000000000        0.5000000000
B                0.7500000000        0.0000000000        0.5000000000
B                0.5000000000        0.2500000000       -0.0000000000
B                0.5000000000        0.7500000000        0.0000000000
B                0.0000000000        0.5000000000        0.2500000000
B               -0.0000000000        0.5000000000        0.7500000000
C                0.2500000000        0.5000000000        0.0000000000
C                0.7500000000        0.5000000000        0.0000000000
C               -0.0000000000        0.2500000000        0.5000000000
C               -0.0000000000        0.7500000000        0.5000000000
C                0.5000000000        0.0000000000        0.2500000000
C                0.5000000000        0.0000000000        0.7500000000
End final coordinates



     Writing config-only to output data dir ./tmp/CaB3C3.save/ :
     XML data file

     Final scf calculation at the relaxed structure.
     The G-vectors are recalculated for the final unit cell
     Results may differ from those at the preceding step.

     G-vector sticks info
     --------------------
     sticks:   dense  smooth     PW     G-vecs:    dense   smooth      PW
     Sum         989     989    293                23439    23439    3887

     Using Slab Decomposition



     bravais-lattice index     =            1
     lattice parameter (alat)  =       8.8254  a.u.
     unit-cell volume          =     684.3887 (a.u.)^3
     number of atoms/cell      =           14
     number of atomic types    =            3
     number of electrons       =        62.00
     number of Kohn-Sham states=           37
     kinetic-energy cutoff     =      40.0000  Ry
     charge density cutoff     =     160.0000  Ry
     scf convergence threshold =      1.0E-07
     mixing beta               =       0.7000
     number of iterations used =            8  plain     mixing
     press convergence thresh. =      5.0E-01
     Exchange-correlation= PBE
                           (   1   4   3   4   0   0   0)

     celldm(1)=   8.825402  celldm(2)=   0.000000  celldm(3)=   0.000000
     celldm(4)=   0.000000  celldm(5)=   0.000000  celldm(6)=   0.000000

     crystal axes: (cart. coord. in units of alat)
               a(1) = (   0.998542   0.000000   0.000000 )  
               a(2) = (   0.000000   0.998542   0.000000 )  
               a(3) = (   0.000000   0.000000   0.998542 )  

     reciprocal axes: (cart. coord. in units 2 pi/alat)
               b(1) = (  1.001460  0.000000  0.000000 )  
               b(2) = (  0.000000  1.001460  0.000000 )  
               b(3) = (  0.000000  0.000000  1.001460 )  


     PseudoPot. # 1 for Ca read from file:
     ./PSEUDO/Ca.upf
     MD5 check sum: 70c88f1a6e4e81b49168c3af07036c03
     Pseudo is Norm-conserving + core correction, Zval = 10.0
     Generated using ONCVPSP code by D. R. Hamann
     Using radial grid of 1766 points,  6 beta functions with: 
                l(1) =   0
                l(2) =   0
                l(3) =   1
                l(4) =   1
                l(5) =   2
                l(6) =   2

     PseudoPot. # 2 for B  read from file:
     ./PSEUDO/B.upf
     MD5 check sum: 72f82fc31bc892420d0cab7e25c88ab8
     Pseudo is Norm-conserving + core correction, Zval =  3.0
     Generated using ONCVPSP code by D. R. Hamann
     Using radial grid of 1534 points,  4 beta functions with: 
                l(1) =   0
                l(2) =   0
                l(3) =   1
                l(4) =   1

     PseudoPot. # 3 for C  read from file:
     ./PSEUDO/C.upf
     MD5 check sum: 34a24e64c0a39f27c6c36b90a16ac686
     Pseudo is Norm-conserving + core correction, Zval =  4.0
     Generated using ONCVPSP code by D. R. Hamann
     Using radial grid of 1248 points,  4 beta functions with: 
                l(1) =   0
                l(2) =   0
                l(3) =   1
                l(4) =   1

     atomic species   valence    mass     pseudopotential
     Ca               10.00    40.07800     Ca( 1.00)
     B                 3.00    10.81100     B ( 1.00)
     C                 4.00    12.01100     C ( 1.00)

     48 Sym. Ops., with inversion, found (24 have fractional translation)



   Cartesian axes

     site n.     atom                  positions (alat units)
         1        Ca     tau(   1) = (   0.0000000   0.0000000   0.0000000  )
         2        Ca     tau(   2) = (   0.4992711   0.4992711   0.4992711  )
         3        B      tau(   3) = (   0.2496356   0.0000000   0.4992711  )
         4        B      tau(   4) = (   0.7489067   0.0000000   0.4992711  )
         5        B      tau(   5) = (   0.4992711   0.2496356  -0.0000000  )
         6        B      tau(   6) = (   0.4992711   0.7489067   0.0000000  )
         7        B      tau(   7) = (   0.0000000   0.4992711   0.2496356  )
         8        B      tau(   8) = (  -0.0000000   0.4992711   0.7489067  )
         9        C      tau(   9) = (   0.2496356   0.4992711   0.0000000  )
        10        C      tau(  10) = (   0.7489067   0.4992711   0.0000000  )
        11        C      tau(  11) = (  -0.0000000   0.2496356   0.4992711  )
        12        C      tau(  12) = (  -0.0000000   0.7489067   0.4992711  )
        13        C      tau(  13) = (   0.4992711   0.0000000   0.2496356  )
        14        C      tau(  14) = (   0.4992711   0.0000000   0.7489067  )

     number of k points=     4  Methfessel-Paxton smearing, width (Ry)=  0.0400
                       cart. coord. in units 2pi/alat
        k(    1) = (   0.0000000   0.0000000   0.0000000), wk =   0.2500000
        k(    2) = (   0.0000000   0.0000000  -0.5007300), wk =   0.7500000
        k(    3) = (   0.0000000  -0.5007300  -0.5007300), wk =   0.7500000
        k(    4) = (  -0.5007300  -0.5007300  -0.5007300), wk =   0.2500000

     Dense  grid:    23439 G-vectors     FFT dimensions: (  36,  36,  36)

     Estimated max dynamical RAM per process >      42.09 MB

     Check: negative core charge=   -0.000001

     Initial potential from superposition of free atoms

     starting charge      61.9884, renormalised to      62.0000
     Starting wfcs are   58 randomized atomic wfcs

     total cpu time spent up to now is       21.2 secs

     Self-consistent Calculation

     iteration #  1     ecut=    40.00 Ry     beta= 0.70
     Davidson diagonalization with overlap
     c_bands:  5 eigenvalues not converged
     c_bands:  3 eigenvalues not converged
     c_bands:  5 eigenvalues not converged
     ethr =  1.00E-06,  avg # of iterations = 19.5

     total cpu time spent up to now is       24.6 secs

     total energy              =    -261.82440204 Ry
     estimated scf accuracy    <       0.92158787 Ry

     iteration #  2     ecut=    40.00 Ry     beta= 0.70
     Davidson diagonalization with overlap
     ethr =  1.49E-03,  avg # of iterations =  4.8

     total cpu time spent up to now is       25.5 secs

     total energy              =    -262.04334900 Ry
     estimated scf accuracy    <       0.13410420 Ry

     iteration #  3     ecut=    40.00 Ry     beta= 0.70
     Davidson diagonalization with overlap
     ethr =  2.16E-04,  avg # of iterations =  2.8

     total cpu time spent up to now is       26.2 secs

     total energy              =    -262.07023015 Ry
     estimated scf accuracy    <       0.00169400 Ry

     iteration #  4     ecut=    40.00 Ry     beta= 0.70
     Davidson diagonalization with overlap
     c_bands:  1 eigenvalues not converged
     ethr =  2.73E-06,  avg # of iterations = 11.0

     total cpu time spent up to now is       27.7 secs

     total energy              =    -262.07261388 Ry
     estimated scf accuracy    <       0.00155261 Ry

     iteration #  5     ecut=    40.00 Ry     beta= 0.70
     Davidson diagonalization with overlap
     ethr =  2.50E-06,  avg # of iterations =  2.0

     total cpu time spent up to now is       28.3 secs

     total energy              =    -262.07245333 Ry
     estimated scf accuracy    <       0.00040386 Ry

     iteration #  6     ecut=    40.00 Ry     beta= 0.70
     Davidson diagonalization with overlap
     ethr =  6.51E-07,  avg # of iterations =  3.8

     total cpu time spent up to now is       29.2 secs

     total energy              =    -262.07260488 Ry
     estimated scf accuracy    <       0.00017529 Ry

     iteration #  7     ecut=    40.00 Ry     beta= 0.70
     Davidson diagonalization with overlap
     ethr =  2.83E-07,  avg # of iterations =  2.0

     total cpu time spent up to now is       29.9 secs

     End of self-consistent calculation

          k = 0.0000 0.0000 0.0000 (  2945 PWs)   bands (ev):

   -26.9341 -26.8988  -8.3558  -8.3558  -8.3558  -8.1724  -8.1724  -8.1724
    -3.8601  -1.1400  -1.1400   2.4924   2.4924   2.4924   3.3490   3.3490
     4.1265   5.9885   5.9885   5.9885   7.7874   7.7874   7.7874  10.2057
    10.2057  10.2057  10.3851  10.3851  10.3851  14.5036  14.5036  14.5036
    18.5071  18.5071  18.5071  19.4376  19.4376

          k = 0.0000 0.0000-0.5007 (  2906 PWs)   bands (ev):

   -26.9071 -26.9071  -8.4047  -8.4047  -8.2607  -8.2607  -8.2550  -8.2550
    -2.4305  -2.4305  -0.0197  -0.0197   2.5294   2.5294   3.4327   3.4327
     4.9288   4.9288   7.2418   7.2418   8.8217   8.8217   9.0456   9.0456
     9.6748   9.6748  10.1403  10.1403  12.5865  12.5865  13.3743  13.3744
    16.3753  16.3753  17.3354  17.3354  18.3710

          k = 0.0000-0.5007-0.5007 (  2968 PWs)   bands (ev):

   -26.9162 -26.9162  -8.5595  -8.5591  -8.2505  -8.2505  -8.2022  -8.1943
    -1.5500  -1.2958  -1.1407  -1.1407   1.1432   2.4648   3.3235   5.0752
     6.4504   6.4504   7.3605   7.3605   8.0226   8.0226   8.7841   8.8027
     9.0452   9.8627  10.8514  10.8514  11.7130  11.7130  12.6147  13.3431
    15.9757  15.9757  17.0047  17.6048  17.9259

          k =-0.5007-0.5007-0.5007 (  2872 PWs)   bands (ev):

   -26.8958 -26.8958  -8.3692  -8.3692  -8.3692  -8.3692  -8.3692  -8.3692
    -0.5405  -0.5405  -0.5405  -0.5405  -0.5405  -0.5405   4.9658   4.9658
     8.7629   8.7630   8.7630   8.7630   8.7630   8.7630   9.1769   9.1769
     9.1769   9.1769   9.1769   9.1769   9.8671   9.8671   9.8671   9.8671
    18.3031  18.3831  18.3875  18.3886  18.3889

     the Fermi energy is    13.3064 ev

!    total energy              =    -262.07263987 Ry
     estimated scf accuracy    <       0.00000008 Ry
     smearing contrib. (-TS)   =      -0.00637603 Ry
     internal energy E=F+TS    =    -262.06626384 Ry

     The total energy is F=E-TS. E is the sum of the following terms:
     one-electron contribution =      23.07504276 Ry
     hartree contribution      =      28.95710512 Ry
     xc contribution           =     -71.00738080 Ry
     ewald contribution        =    -243.09103092 Ry

     convergence has been achieved in   7 iterations

     Forces acting on atoms (cartesian axes, Ry/au):

     atom    1 type  1   force =     0.00000000    0.00000000    0.00000000
     atom    2 type  1   force =     0.00000000    0.00000000    0.00000000
     atom    3 type  2   force =    -0.00000000    0.00000000    0.00000000
     atom    4 type  2   force =     0.00000000    0.00000000   -0.00000000
     atom    5 type  2   force =     0.00000000    0.00000000    0.00000000
     atom    6 type  2   force =     0.00000000   -0.00000000    0.00000000
     atom    7 type  2   force =     0.00000000    0.00000000    0.00000000
     atom    8 type  2   force =     0.00000000    0.00000000    0.00000000
     atom    9 type  3   force =    -0.00000000   -0.00000000    0.00000000
     atom   10 type  3   force =     0.00000000   -0.00000000    0.00000000
     atom   11 type  3   force =     0.00000000    0.00000000   -0.00000000
     atom   12 type  3   force =    -0.00000000    0.00000000   -0.00000000
     atom   13 type  3   force =     0.00000000    0.00000000   -0.00000000
     atom   14 type  3   force =     0.00000000    0.00000000   -0.00000000

     Total force =     0.000000     Total SCF correction =     0.000000


     Computing stress (Cartesian axis) and pressure

          total   stress  (Ry/bohr**3)                   (kbar)     P=       -2.66
  -0.00001806   0.00000000   0.00000000           -2.66        0.00        0.00
   0.00000000  -0.00001806   0.00000000            0.00       -2.66        0.00
   0.00000000   0.00000000  -0.00001806            0.00        0.00       -2.66


     Writing all to output data dir ./tmp/CaB3C3.save/ :
     XML data file, charge density, pseudopotentials, collected wavefunctions

     init_run     :      1.76s CPU      1.84s WALL (       2 calls)
     electrons    :     23.23s CPU     23.64s WALL (       5 calls)
     update_pot   :      0.04s CPU      0.05s WALL (       3 calls)
     forces       :      1.28s CPU      1.30s WALL (       5 calls)
     stress       :      3.98s CPU      4.01s WALL (       5 calls)

     Called by init_run:
     wfcinit      :      1.06s CPU      1.12s WALL (       2 calls)
     potinit      :      0.20s CPU      0.21s WALL (       2 calls)
     hinit0       :      0.48s CPU      0.49s WALL (       2 calls)

     Called by electrons:
     c_bands      :     22.02s CPU     22.36s WALL (      24 calls)
     sum_band     :      0.96s CPU      1.03s WALL (      24 calls)
     v_of_rho     :      0.26s CPU      0.28s WALL (      26 calls)
     mix_rho      :      0.03s CPU      0.03s WALL (      24 calls)

     Called by c_bands:
     init_us_2    :      0.32s CPU      0.34s WALL (     240 calls)
     cegterg      :     21.54s CPU     21.87s WALL (      96 calls)

     Called by *egterg:
     cdiaghg      :      0.59s CPU      0.60s WALL (     540 calls)
     h_psi        :     13.74s CPU     14.06s WALL (     572 calls)
     g_psi        :      0.07s CPU      0.07s WALL (     468 calls)

     Called by h_psi:
     h_psi:calbec :      4.32s CPU      4.34s WALL (     572 calls)
     vloc_psi     :      5.45s CPU      5.71s WALL (     572 calls)
                                        0.00s GPU  (     572 calls)
     add_vuspsi   :      3.92s CPU      3.93s WALL (     572 calls)

     General routines
     calbec       :      8.66s CPU      8.70s WALL (     912 calls)
     fft          :      0.12s CPU      0.12s WALL (     386 calls)
     ffts         :      0.01s CPU      0.01s WALL (      24 calls)
     fftw         :      5.32s CPU      5.68s WALL (   28130 calls)


     PWSCF        :     30.40s CPU     31.00s WALL


   This run was terminated on:  10: 9:23  19Jan2026            

=------------------------------------------------------------------------------=
   JOB DONE.
=------------------------------------------------------------------------------=
