
     Program PWSCF v.7.5 starts on 12Jan2026 at 13:47: 8 

     This program is part of the open-source Quantum ESPRESSO suite
     for quantum simulation of materials; please cite
         "P. Giannozzi et al., J. Phys.:Condens. Matter 21 395502 (2009);
         "P. Giannozzi et al., J. Phys.:Condens. Matter 29 465901 (2017);
         "P. Giannozzi et al., J. Chem. Phys. 152 154105 (2020);
          URL http://www.quantum-espresso.org", 
     in publications or presentations arising from this work. More details at
     http://www.quantum-espresso.org/quote

     Serial version
     1038 MiB available memory on the printing compute node when the environment starts

     Waiting for input...
     Reading input from standard input

     Current dimensions of program PWSCF are:
     Max number of different atomic species (ntypx) = 10
     Max number of k-points (npk) =  40000
     Max angular momentum in pseudopotentials (lmaxx) =  4

     Atomic positions and unit cell read from directory:
     ./tmp/CaB3C3.save/



     G-vector sticks info
     --------------------
     sticks:   dense  smooth     PW     G-vecs:    dense   smooth      PW
     Sum         989     989    293                23583    23583    3887

     Using Slab Decomposition



     bravais-lattice index     =            1
     lattice parameter (alat)  =       8.8254  a.u.
     unit-cell volume          =     687.3905 (a.u.)^3
     number of atoms/cell      =           14
     number of atomic types    =            3
     number of electrons       =        62.00
     number of Kohn-Sham states=           37
     kinetic-energy cutoff     =      40.0000  Ry
     charge density cutoff     =     160.0000  Ry
     Exchange-correlation= PBE
                           (   1   4   3   4   0   0   0)

     celldm(1)=   8.825402  celldm(2)=   0.000000  celldm(3)=   0.000000
     celldm(4)=   0.000000  celldm(5)=   0.000000  celldm(6)=   0.000000

     crystal axes: (cart. coord. in units of alat)
               a(1) = (   1.000000   0.000000   0.000000 )  
               a(2) = (   0.000000   1.000000   0.000000 )  
               a(3) = (   0.000000   0.000000   1.000000 )  

     reciprocal axes: (cart. coord. in units 2 pi/alat)
               b(1) = (  1.000000  0.000000  0.000000 )  
               b(2) = (  0.000000  1.000000  0.000000 )  
               b(3) = (  0.000000  0.000000  1.000000 )  


     PseudoPot. # 1 for Ca read from file:
     ./PSEUDO/Ca.upf
     MD5 check sum: 70c88f1a6e4e81b49168c3af07036c03
     Pseudo is Norm-conserving + core correction, Zval = 10.0
     Generated using ONCVPSP code by D. R. Hamann
     Using radial grid of 1766 points,  6 beta functions with: 
                l(1) =   0
                l(2) =   0
                l(3) =   1
                l(4) =   1
                l(5) =   2
                l(6) =   2

     PseudoPot. # 2 for B  read from file:
     ./PSEUDO/B.upf
     MD5 check sum: 72f82fc31bc892420d0cab7e25c88ab8
     Pseudo is Norm-conserving + core correction, Zval =  3.0
     Generated using ONCVPSP code by D. R. Hamann
     Using radial grid of 1534 points,  4 beta functions with: 
                l(1) =   0
                l(2) =   0
                l(3) =   1
                l(4) =   1

     PseudoPot. # 3 for C  read from file:
     ./PSEUDO/C.upf
     MD5 check sum: 34a24e64c0a39f27c6c36b90a16ac686
     Pseudo is Norm-conserving + core correction, Zval =  4.0
     Generated using ONCVPSP code by D. R. Hamann
     Using radial grid of 1248 points,  4 beta functions with: 
                l(1) =   0
                l(2) =   0
                l(3) =   1
                l(4) =   1

     atomic species   valence    mass     pseudopotential
     Ca               10.00    40.07800     Ca( 1.00)
     B                 3.00    10.81100     B ( 1.00)
     C                 4.00    12.01100     C ( 1.00)

     48 Sym. Ops., with inversion, found (24 have fractional translation)



   Cartesian axes

     site n.     atom                  positions (alat units)
         1        Ca     tau(   1) = (   0.0000000   0.0000000   0.0000000  )
         2        Ca     tau(   2) = (   0.5000000   0.5000000   0.5000000  )
         3        B      tau(   3) = (   0.2500000   0.0000000   0.5000000  )
         4        B      tau(   4) = (   0.7500000   0.0000000   0.5000000  )
         5        B      tau(   5) = (   0.5000000   0.2500000   0.0000000  )
         6        B      tau(   6) = (   0.5000000   0.7500000   0.0000000  )
         7        B      tau(   7) = (   0.0000000   0.5000000   0.2500000  )
         8        B      tau(   8) = (   0.0000000   0.5000000   0.7500000  )
         9        C      tau(   9) = (   0.2500000   0.5000000   0.0000000  )
        10        C      tau(  10) = (   0.7500000   0.5000000   0.0000000  )
        11        C      tau(  11) = (   0.0000000   0.2500000   0.5000000  )
        12        C      tau(  12) = (   0.0000000   0.7500000   0.5000000  )
        13        C      tau(  13) = (   0.5000000   0.0000000   0.2500000  )
        14        C      tau(  14) = (   0.5000000   0.0000000   0.7500000  )

     number of k points=    20 (tetrahedron method)
                       cart. coord. in units 2pi/alat
        k(    1) = (   0.0000000   0.0000000   0.0000000), wk =   0.0092593
        k(    2) = (   0.0000000   0.0000000   0.1666667), wk =   0.0555556
        k(    3) = (   0.0000000   0.0000000   0.3333333), wk =   0.0555556
        k(    4) = (   0.0000000   0.0000000  -0.5000000), wk =   0.0277778
        k(    5) = (   0.0000000   0.1666667   0.1666667), wk =   0.1111111
        k(    6) = (   0.0000000   0.1666667   0.3333333), wk =   0.2222222
        k(    7) = (   0.0000000   0.1666667  -0.5000000), wk =   0.1111111
        k(    8) = (   0.0000000   0.3333333   0.3333333), wk =   0.1111111
        k(    9) = (   0.0000000   0.3333333  -0.5000000), wk =   0.1111111
        k(   10) = (   0.0000000  -0.5000000  -0.5000000), wk =   0.0277778
        k(   11) = (   0.1666667   0.1666667   0.1666667), wk =   0.0740741
        k(   12) = (   0.1666667   0.1666667   0.3333333), wk =   0.2222222
        k(   13) = (   0.1666667   0.1666667  -0.5000000), wk =   0.1111111
        k(   14) = (   0.1666667   0.3333333   0.3333333), wk =   0.2222222
        k(   15) = (   0.1666667   0.3333333  -0.5000000), wk =   0.2222222
        k(   16) = (   0.1666667  -0.5000000  -0.5000000), wk =   0.0555556
        k(   17) = (   0.3333333   0.3333333   0.3333333), wk =   0.0740741
        k(   18) = (   0.3333333   0.3333333  -0.5000000), wk =   0.1111111
        k(   19) = (   0.3333333  -0.5000000  -0.5000000), wk =   0.0555556
        k(   20) = (  -0.5000000  -0.5000000  -0.5000000), wk =   0.0092593

     Dense  grid:    23583 G-vectors     FFT dimensions: (  36,  36,  36)

     Estimated max dynamical RAM per process >      25.55 MB

     Check: negative core charge=   -0.000001

     The potential is recalculated from file :
     ./tmp/CaB3C3.save/charge-density

     Starting wfcs are   58 randomized atomic wfcs

     Band Structure Calculation
     Davidson diagonalization with overlap
     c_bands:  1 eigenvalues not converged
     c_bands:  1 eigenvalues not converged

     ethr =  1.61E-08,  avg # of iterations = 78.5

     total cpu time spent up to now is       49.5 secs

     End of band structure calculation

          k = 0.0000 0.0000 0.0000 (  2945 PWs)   bands (ev):

   -27.0087 -26.9740  -8.4264  -8.4264  -8.4264  -8.2469  -8.2469  -8.2469
    -3.8885  -1.1736  -1.1736   2.4436   2.4436   2.4436   3.3135   3.3135
     4.0942   5.9335   5.9335   5.9335   7.7477   7.7477   7.7477  10.1553
    10.1553  10.1553  10.3303  10.3303  10.3303  14.4354  14.4354  14.4354
    18.4123  18.4123  18.4123  18.4315  18.4315

          k = 0.0000 0.0000 0.1667 (  2934 PWs)   bands (ev):

   -27.0032 -26.9731  -8.4472  -8.4129  -8.4129  -8.2973  -8.2573  -8.2573
    -3.6942  -1.3088  -1.0432   1.6891   2.4525   2.4525   3.3181   3.3711
     4.7495   5.5743   5.5743   6.6448   7.8726   8.1371   8.1371   9.7412
     9.9377  10.0641  10.0641  10.6758  10.6758  13.7523  14.3003  14.3003
    17.2582  18.3670  18.4598  18.4598  18.5662

          k = 0.0000 0.0000 0.3333 (  2930 PWs)   bands (ev):

   -26.9936 -26.9792  -8.4809  -8.4002  -8.3771  -8.3771  -8.2870  -8.2870
    -3.1723  -1.7689  -0.6656   0.7388   2.4697   2.4697   3.2451   3.4506
     5.0788   5.0788   5.9763   8.1854   8.2315   8.4822   8.6977   8.6977
     9.3976   9.8165   9.8165  11.6337  11.6337  12.0803  13.8868  13.8868
    16.2956  17.1861  17.6784  17.6784  18.5093

          k = 0.0000 0.0000-0.5000 (  2906 PWs)   bands (ev):

   -26.9818 -26.9818  -8.4734  -8.4734  -8.3333  -8.3333  -8.3278  -8.3278
    -2.4680  -2.4680  -0.0554  -0.0554   2.4828   2.4828   3.3947   3.3947
     4.8826   4.8826   7.1988   7.1988   8.7778   8.7778   8.9930   8.9930
     9.6203   9.6203  10.0807  10.0807  12.5281  12.5281  13.3098  13.3098
    16.2962  16.2962  17.2639  17.2639  18.2940

          k = 0.0000 0.1667 0.1667 (  2939 PWs)   bands (ev):

   -27.0024 -26.9749  -8.4774  -8.4009  -8.3916  -8.3552  -8.2661  -8.2531
    -3.5095  -1.2732  -1.0729   1.5731   1.6639   2.4551   3.2755   4.0436
     5.0095   5.3927   6.1221   6.4039   7.5824   8.2960   8.7966   9.4159
     9.9123  10.0070  10.3878  10.4082  10.9389  13.5154  13.7051  14.1857
    17.2791  17.7552  17.7715  18.2378  18.2587

          k = 0.0000 0.1667 0.3333 (  2933 PWs)   bands (ev):

   -26.9920 -26.9811  -8.5190  -8.4539  -8.3693  -8.3531  -8.2914  -8.2716
    -3.0094  -1.6496  -0.7660   0.6250   1.5977   2.4623   3.2390   4.4579
     5.0644   5.6705   6.0503   7.5721   7.6764   8.3490   8.6774   9.3122
     9.6300   9.6804  10.4754  11.3229  11.7488  11.9341  13.2277  13.8183
    16.4837  16.8786  17.5579  17.5922  18.2561

          k = 0.0000 0.1667-0.5000 (  2922 PWs)   bands (ev):

   -26.9844 -26.9843  -8.5189  -8.5188  -8.3308  -8.3267  -8.3119  -8.3060
    -2.3317  -2.3208  -0.2470  -0.0992   1.6271   2.4664   3.2484   4.6181
     4.9162   5.4568   7.0946   7.1712   8.0164   8.1726   8.8022   9.5602
     9.9128   9.9943  10.1295  10.3436  12.1521  12.5465  12.7279  13.3162
    16.2795  16.4369  17.1983  17.2810  17.9483

          k = 0.0000 0.3333 0.3333 (  2950 PWs)   bands (ev):

   -26.9951 -26.9829  -8.5765  -8.5425  -8.3494  -8.3147  -8.3043  -8.2654
    -2.5622  -1.4243  -1.0602   0.1011   1.1316   2.4428   3.1931   5.0203
     5.8332   6.2425   6.4652   7.2757   7.3759   7.9911   8.3365   9.2390
     9.6408  10.6483  11.0659  11.0702  11.2082  12.0377  12.1265  13.5958
    16.2609  16.7566  16.8773  17.2636  17.9748

          k = 0.0000 0.3333-0.5000 (  2934 PWs)   bands (ev):

   -26.9854 -26.9854  -8.5921  -8.5921  -8.3258  -8.3244  -8.2855  -8.2786
    -1.9646  -1.9025  -0.7358  -0.5185   1.1347   2.4364   3.2243   4.9925
     6.2411   6.2977   6.9022   7.3214   7.4885   7.5491   8.8109   9.3687
     9.6391   9.7274  11.1099  11.2517  11.3231  11.4740  12.5649  13.3141
    16.1309  16.2365  17.0491  17.4089  17.6954

          k = 0.0000-0.5000-0.5000 (  2968 PWs)   bands (ev):

   -26.9912 -26.9912  -8.6250  -8.6247  -8.3233  -8.3233  -8.2758  -8.2682
    -1.5943  -1.3411  -1.1737  -1.1737   1.1023   2.4205   3.2828   5.0310
     6.4114   6.4114   7.3136   7.3136   7.9692   7.9692   8.7296   8.7493
     8.9924   9.8078  10.7967  10.7967  11.6567  11.6567  12.5561  13.2783
    15.9025  15.9025  16.9370  17.5246  17.5950

          k = 0.1667 0.1667 0.1667 (  2941 PWs)   bands (ev):

   -27.0004 -26.9762  -8.4606  -8.4606  -8.3977  -8.3486  -8.2663  -8.2663
    -3.3312  -1.1548  -1.1548   1.4693   1.5844   1.5844   4.1130   4.1130
     5.1421   6.0332   6.0332   6.1769   7.1386   8.8748   8.8748   8.8829
    10.2455  10.2455  10.5567  10.5567  10.5821  13.3566  13.5632  13.5632
    17.3195  17.4676  17.4676  17.9508  17.9566

          k = 0.1667 0.1667 0.3333 (  2939 PWs)   bands (ev):

   -26.9936 -26.9808  -8.5199  -8.4809  -8.4159  -8.3144  -8.3034  -8.2726
    -2.8508  -1.5351  -0.8032   0.5627   1.3683   1.5787   4.3060   4.5770
     5.5976   5.7435   6.1010   6.9731   7.4491   8.3359   8.7155   9.1783
     9.7547  10.4091  10.4708  11.2463  11.5806  11.8343  13.1183  13.1873
    16.6592  16.7121  17.3255  17.5017  17.8997

          k = 0.1667 0.1667-0.5000 (  2922 PWs)   bands (ev):

   -26.9839 -26.9839  -8.5327  -8.5327  -8.3579  -8.3579  -8.2886  -8.2886
    -2.1879  -2.1879  -0.2258  -0.2258   1.4777   1.4777   4.5397   4.5397
     5.5247   5.5247   6.8725   6.8725   7.9831   7.9831   9.1281   9.1281
     9.9835   9.9835  10.5125  10.5125  12.1287  12.1287  12.7447  12.7447
    16.4892  16.4892  17.1145  17.1145  17.8644

          k = 0.1667 0.3333 0.3333 (  2949 PWs)   bands (ev):

   -26.9913 -26.9854  -8.5536  -8.5403  -8.4105  -8.3213  -8.2922  -8.2838
    -2.4145  -1.3230  -0.9891   0.1658   0.8103   1.3759   4.5079   5.6147
     5.9142   6.1640   6.2580   7.0729   7.1092   7.9101   8.8296   9.2490
     9.6251  10.7128  10.9872  11.0465  11.1871  11.8249  11.9138  12.9177
    16.5211  16.6888  16.7763  17.3976  17.7716

          k = 0.1667 0.3333-0.5000 (  2936 PWs)   bands (ev):

   -26.9853 -26.9853  -8.5746  -8.5742  -8.3629  -8.3626  -8.2883  -8.2845
    -1.8335  -1.7807  -0.6368  -0.4647   0.7997   1.3586   4.5841   5.5716
     6.0610   6.1191   6.5983   7.0834   7.8593   7.9292   8.8245   9.3831
     9.5705   9.7580  10.8580  11.0492  11.3667  11.3758  12.1780  12.6800
    16.5010  16.5464  16.9165  17.1619  17.8304

          k = 0.1667-0.5000-0.5000 (  2936 PWs)   bands (ev):

   -26.9849 -26.9849  -8.5992  -8.5987  -8.3530  -8.3530  -8.2962  -8.2901
    -1.4838  -1.2627  -1.0357  -1.0357   0.7279   1.3557   4.6343   5.6987
     5.9223   5.9223   7.7366   7.7366   8.1096   8.1096   8.7181   8.7832
     8.9532   9.6842  10.6932  10.6932  11.2468  11.2468  12.1668  12.6303
    16.4813  16.4813  16.9472  17.3720  17.8633

          k = 0.3333 0.3333 0.3333 (  2947 PWs)   bands (ev):

   -26.9930 -26.9816  -8.5435  -8.4924  -8.4924  -8.3366  -8.3366  -8.2948
    -2.0148  -1.0133  -1.0133   0.2900   0.2900   0.3960   5.7240   5.7769
     6.1528   6.1528   6.7862   7.1312   7.1312   7.8571   9.1905   9.1905
    10.0682  10.0682  10.5787  11.0248  11.2725  11.2725  11.4783  11.4783
    16.4778  17.1754  17.1754  17.3335  17.3335

          k = 0.3333 0.3333-0.5000 (  2956 PWs)   bands (ev):

   -26.9886 -26.9886  -8.5396  -8.5396  -8.4122  -8.4122  -8.3191  -8.3191
    -1.4641  -1.4641  -0.4845  -0.4845   0.3321   0.3321   5.5054   5.5054
     6.4636   6.4636   7.1752   7.1752   8.3177   8.3177   8.9659   8.9659
     9.7007   9.7007  10.5785  10.5785  10.8777  10.8777  11.3090  11.3090
    16.9345  16.9345  17.4361  17.4361  18.0436

          k = 0.3333-0.5000-0.5000 (  2944 PWs)   bands (ev):

   -26.9859 -26.9859  -8.5304  -8.5294  -8.4109  -8.4109  -8.3544  -8.3516
    -1.1555  -1.0158  -0.7441  -0.7441   0.0294   0.2505   5.2314   5.2314
     6.5794   7.2075   8.3756   8.3756   8.5337   8.5337   8.7006   8.8517
     8.8805   9.3912  10.2267  10.2267  10.4583  10.4583  10.8875  10.9017
    17.3714  17.4611  17.6250  17.6250  17.9993

          k =-0.5000-0.5000-0.5000 (  3016 PWs)   bands (ev):

   -26.9990 -26.9990  -8.4393  -8.4393  -8.4393  -8.4393  -8.4393  -8.4393
    -0.5877  -0.5877  -0.5877  -0.5877  -0.5877  -0.5877   4.9258   4.9258
     8.6912   8.6912   8.6912   8.6912   8.6912   8.6912   9.1179   9.1179
     9.1179   9.1179   9.1179   9.1179   9.8047   9.8047   9.8047   9.8047
    18.1980  18.1980  18.1980  18.1980  18.1980

     the Fermi energy is    13.0128 ev
     (compare with:    13.2399 eV, computed in scf)

     Writing all to output data dir ./tmp/CaB3C3.save/ :
     XML data file, pseudopotentials, collected wavefunctions

     init_run     :      0.19s CPU      0.20s WALL (       1 calls)
     electrons    :     48.03s CPU     49.20s WALL (       1 calls)

     Called by init_run:
     wfcinit      :      0.00s CPU      0.00s WALL (       1 calls)
     potinit      :      0.02s CPU      0.02s WALL (       1 calls)
     hinit0       :      0.16s CPU      0.16s WALL (       1 calls)

     Called by electrons:
     c_bands      :     48.00s CPU     49.17s WALL (       1 calls)
     v_of_rho     :      0.02s CPU      0.02s WALL (       1 calls)

     Called by c_bands:
     init_us_2    :      0.02s CPU      0.03s WALL (      20 calls)
     cegterg      :     46.01s CPU     47.06s WALL (      87 calls)

     Called by *egterg:
     cdiaghg      :      1.71s CPU      1.75s WALL (    1589 calls)
     h_psi        :     26.97s CPU     27.84s WALL (    1676 calls)
     g_psi        :      0.16s CPU      0.17s WALL (    1569 calls)

     Called by h_psi:
     h_psi:calbec :      8.50s CPU      8.56s WALL (    1676 calls)
     vloc_psi     :     10.71s CPU     11.39s WALL (    1676 calls)
                                        0.00s GPU  (    1676 calls)
     add_vuspsi   :      7.64s CPU      7.68s WALL (    1676 calls)

     General routines
     calbec       :      8.48s CPU      8.55s WALL (    1676 calls)
     fft          :      0.00s CPU      0.01s WALL (      11 calls)
     fftw         :      9.15s CPU      9.99s WALL (   48410 calls)
     davcio       :      0.00s CPU      0.03s WALL (      40 calls)


     PWSCF        :     48.32s CPU     49.54s WALL


   This run was terminated on:  13:47:57  12Jan2026            

=------------------------------------------------------------------------------=
   JOB DONE.
=------------------------------------------------------------------------------=
