
     Program PWSCF v.7.5 starts on 19Jan2026 at 10:14:48 

     This program is part of the open-source Quantum ESPRESSO suite
     for quantum simulation of materials; please cite
         "P. Giannozzi et al., J. Phys.:Condens. Matter 21 395502 (2009);
         "P. Giannozzi et al., J. Phys.:Condens. Matter 29 465901 (2017);
         "P. Giannozzi et al., J. Chem. Phys. 152 154105 (2020);
          URL http://www.quantum-espresso.org", 
     in publications or presentations arising from this work. More details at
     http://www.quantum-espresso.org/quote

     Serial version
     1704 MiB available memory on the printing compute node when the environment starts

     Waiting for input...
     Reading input from standard input

     Current dimensions of program PWSCF are:
     Max number of different atomic species (ntypx) = 10
     Max number of k-points (npk) =  40000
     Max angular momentum in pseudopotentials (lmaxx) =  4


     G-vector sticks info
     --------------------
     sticks:   dense  smooth     PW     G-vecs:    dense   smooth      PW
     Sum         989     989    293                23439    23439    3887

     Using Slab Decomposition



     bravais-lattice index     =            1
     lattice parameter (alat)  =       8.8125  a.u.
     unit-cell volume          =     684.3887 (a.u.)^3
     number of atoms/cell      =           14
     number of atomic types    =            3
     number of electrons       =        62.00
     number of Kohn-Sham states=           37
     kinetic-energy cutoff     =      40.0000  Ry
     charge density cutoff     =     160.0000  Ry
     scf convergence threshold =      1.0E-05
     mixing beta               =       0.7000
     number of iterations used =            8  plain     mixing
     energy convergence thresh.=      1.0E-04
     force convergence thresh. =      1.0E-03
     press convergence thresh. =      5.0E-01
     Exchange-correlation= PBE
                           (   1   4   3   4   0   0   0)
     nstep                     =           50


     celldm(1)=   8.812537  celldm(2)=   0.000000  celldm(3)=   0.000000
     celldm(4)=   0.000000  celldm(5)=   0.000000  celldm(6)=   0.000000

     crystal axes: (cart. coord. in units of alat)
               a(1) = (   1.000000   0.000000   0.000000 )  
               a(2) = (   0.000000   1.000000   0.000000 )  
               a(3) = (   0.000000   0.000000   1.000000 )  

     reciprocal axes: (cart. coord. in units 2 pi/alat)
               b(1) = (  1.000000  0.000000  0.000000 )  
               b(2) = (  0.000000  1.000000  0.000000 )  
               b(3) = (  0.000000  0.000000  1.000000 )  


     PseudoPot. # 1 for Ca read from file:
     ./PSEUDO/Ca.upf
     MD5 check sum: 70c88f1a6e4e81b49168c3af07036c03
     Pseudo is Norm-conserving + core correction, Zval = 10.0
     Generated using ONCVPSP code by D. R. Hamann
     Using radial grid of 1766 points,  6 beta functions with: 
                l(1) =   0
                l(2) =   0
                l(3) =   1
                l(4) =   1
                l(5) =   2
                l(6) =   2

     PseudoPot. # 2 for B  read from file:
     ./PSEUDO/B.upf
     MD5 check sum: 72f82fc31bc892420d0cab7e25c88ab8
     Pseudo is Norm-conserving + core correction, Zval =  3.0
     Generated using ONCVPSP code by D. R. Hamann
     Using radial grid of 1534 points,  4 beta functions with: 
                l(1) =   0
                l(2) =   0
                l(3) =   1
                l(4) =   1

     PseudoPot. # 3 for C  read from file:
     ./PSEUDO/C.upf
     MD5 check sum: 34a24e64c0a39f27c6c36b90a16ac686
     Pseudo is Norm-conserving + core correction, Zval =  4.0
     Generated using ONCVPSP code by D. R. Hamann
     Using radial grid of 1248 points,  4 beta functions with: 
                l(1) =   0
                l(2) =   0
                l(3) =   1
                l(4) =   1

     atomic species   valence    mass     pseudopotential
     Ca               10.00    40.07800     Ca( 1.00)
     B                 3.00    10.81100     B ( 1.00)
     C                 4.00    12.01100     C ( 1.00)

     48 Sym. Ops., with inversion, found (24 have fractional translation)



   Cartesian axes

     site n.     atom                  positions (alat units)
         1        Ca     tau(   1) = (   0.0000000   0.0000000   0.0000000  )
         2        Ca     tau(   2) = (   0.5000000   0.5000000   0.5000000  )
         3        B      tau(   3) = (   0.2500000   0.0000000   0.5000000  )
         4        B      tau(   4) = (   0.7500000   0.0000000   0.5000000  )
         5        B      tau(   5) = (   0.5000000   0.2500000   0.0000000  )
         6        B      tau(   6) = (   0.5000000   0.7500000   0.0000000  )
         7        B      tau(   7) = (   0.0000000   0.5000000   0.2500000  )
         8        B      tau(   8) = (   0.0000000   0.5000000   0.7500000  )
         9        C      tau(   9) = (   0.2500000   0.5000000   0.0000000  )
        10        C      tau(  10) = (   0.7500000   0.5000000   0.0000000  )
        11        C      tau(  11) = (   0.0000000   0.2500000   0.5000000  )
        12        C      tau(  12) = (   0.0000000   0.7500000   0.5000000  )
        13        C      tau(  13) = (   0.5000000   0.0000000   0.2500000  )
        14        C      tau(  14) = (   0.5000000   0.0000000   0.7500000  )

     number of k points=     4  Methfessel-Paxton smearing, width (Ry)=  0.0400
                       cart. coord. in units 2pi/alat
        k(    1) = (   0.0000000   0.0000000   0.0000000), wk =   0.2500000
        k(    2) = (   0.0000000   0.0000000  -0.5000000), wk =   0.7500000
        k(    3) = (   0.0000000  -0.5000000  -0.5000000), wk =   0.7500000
        k(    4) = (  -0.5000000  -0.5000000  -0.5000000), wk =   0.2500000

     Dense  grid:    23439 G-vectors     FFT dimensions: (  36,  36,  36)

     Estimated max dynamical RAM per process >      41.55 MB

     Check: negative core charge=   -0.000001

     Initial potential from superposition of free atoms

     starting charge      61.9884, renormalised to      62.0000
     Starting wfcs are   58 randomized atomic wfcs

     total cpu time spent up to now is        1.6 secs

     Self-consistent Calculation

     iteration #  1     ecut=    40.00 Ry     beta= 0.70
     Davidson diagonalization with overlap
     ethr =  1.00E-02,  avg # of iterations =  4.5

     total cpu time spent up to now is        2.7 secs

     total energy              =    -261.73630868 Ry
     estimated scf accuracy    <       0.97166638 Ry

     iteration #  2     ecut=    40.00 Ry     beta= 0.70
     Davidson diagonalization with overlap
     ethr =  1.57E-03,  avg # of iterations =  6.2

     total cpu time spent up to now is        3.6 secs

     total energy              =    -262.02812766 Ry
     estimated scf accuracy    <       0.17857835 Ry

     iteration #  3     ecut=    40.00 Ry     beta= 0.70
     Davidson diagonalization with overlap
     ethr =  2.88E-04,  avg # of iterations =  4.0

     total cpu time spent up to now is        4.4 secs

     total energy              =    -262.06884749 Ry
     estimated scf accuracy    <       0.00233715 Ry

     iteration #  4     ecut=    40.00 Ry     beta= 0.70
     Davidson diagonalization with overlap
     c_bands:  2 eigenvalues not converged
     c_bands:  2 eigenvalues not converged
     ethr =  3.77E-06,  avg # of iterations = 14.0

     total cpu time spent up to now is        6.1 secs

     total energy              =    -262.07229168 Ry
     estimated scf accuracy    <       0.00289584 Ry

     iteration #  5     ecut=    40.00 Ry     beta= 0.70
     Davidson diagonalization with overlap
     ethr =  3.77E-06,  avg # of iterations =  4.0

     total cpu time spent up to now is        6.8 secs

     total energy              =    -262.07250184 Ry
     estimated scf accuracy    <       0.00021492 Ry

     iteration #  6     ecut=    40.00 Ry     beta= 0.70
     Davidson diagonalization with overlap
     ethr =  3.47E-07,  avg # of iterations =  8.2

     total cpu time spent up to now is        8.0 secs

     total energy              =    -262.07259682 Ry
     estimated scf accuracy    <       0.00031717 Ry

     iteration #  7     ecut=    40.00 Ry     beta= 0.70
     Davidson diagonalization with overlap
     ethr =  3.47E-07,  avg # of iterations =  2.0

     total cpu time spent up to now is        8.7 secs

     total energy              =    -262.07262967 Ry
     estimated scf accuracy    <       0.00001500 Ry

     iteration #  8     ecut=    40.00 Ry     beta= 0.70
     Davidson diagonalization with overlap
     ethr =  2.42E-08,  avg # of iterations =  5.0

     total cpu time spent up to now is        9.8 secs

     total energy              =    -262.07264212 Ry
     estimated scf accuracy    <       0.00001216 Ry

     iteration #  9     ecut=    40.00 Ry     beta= 0.70
     Davidson diagonalization with overlap
     ethr =  1.96E-08,  avg # of iterations =  1.5

     total cpu time spent up to now is       10.4 secs

     End of self-consistent calculation

          k = 0.0000 0.0000 0.0000 (  2945 PWs)   bands (ev):

   -26.9324 -26.8972  -8.3543  -8.3543  -8.3543  -8.1709  -8.1709  -8.1709
    -3.8604  -1.1404  -1.1404   2.4922   2.4922   2.4922   3.3487   3.3487
     4.1263   5.9881   5.9881   5.9881   7.7872   7.7872   7.7872  10.2054
    10.2054  10.2054  10.3848  10.3848  10.3848  14.5031  14.5031  14.5031
    18.5069  18.5070  18.5073  19.4374  19.4375

          k = 0.0000 0.0000-0.5000 (  2906 PWs)   bands (ev):

   -26.9054 -26.9054  -8.4032  -8.4032  -8.2591  -8.2591  -8.2535  -8.2535
    -2.4307  -2.4307  -0.0200  -0.0200   2.5291   2.5291   3.4324   3.4324
     4.9285   4.9285   7.2416   7.2416   8.8215   8.8215   9.0453   9.0453
     9.6745   9.6745  10.1399  10.1399  12.5861  12.5861  13.3740  13.3740
    16.3755  16.3756  17.3361  17.3361  18.3718

          k = 0.0000-0.5000-0.5000 (  2968 PWs)   bands (ev):

   -26.9146 -26.9146  -8.5580  -8.5577  -8.2489  -8.2489  -8.2007  -8.1928
    -1.5502  -1.2959  -1.1410  -1.1410   1.1429   2.4645   3.3232   5.0750
     6.4502   6.4502   7.3603   7.3603   8.0223   8.0223   8.7838   8.8024
     9.0449   9.8623  10.8511  10.8511  11.7126  11.7126  12.6143  13.3427
    15.9761  15.9761  17.0055  17.6047  17.6683

          k =-0.5000-0.5000-0.5000 (  2872 PWs)   bands (ev):

   -26.8942 -26.8942  -8.3678  -8.3678  -8.3678  -8.3678  -8.3678  -8.3678
    -0.5407  -0.5407  -0.5407  -0.5407  -0.5407  -0.5407   4.9656   4.9656
     8.7626   8.7626   8.7626   8.7626   8.7626   8.7626   9.1766   9.1766
     9.1766   9.1766   9.1766   9.1766   9.8669   9.8669   9.8669   9.8669
    18.3039  18.3039  18.3052  18.3835  18.3883

     the Fermi energy is    13.3060 ev

!    total energy              =    -262.07263985 Ry
     estimated scf accuracy    <       0.00000364 Ry
     smearing contrib. (-TS)   =      -0.00637576 Ry
     internal energy E=F+TS    =    -262.06626409 Ry

     The total energy is F=E-TS. E is the sum of the following terms:
     one-electron contribution =      23.07219134 Ry
     hartree contribution      =      28.96175031 Ry
     xc contribution           =     -71.00917845 Ry
     ewald contribution        =    -243.09102729 Ry

     convergence has been achieved in   9 iterations

     Forces acting on atoms (cartesian axes, Ry/au):

     atom    1 type  1   force =     0.00000000    0.00000000    0.00000000
     atom    2 type  1   force =     0.00000000    0.00000000    0.00000000
     atom    3 type  2   force =    -0.00000000   -0.00000000   -0.00000000
     atom    4 type  2   force =     0.00000000    0.00000000    0.00000000
     atom    5 type  2   force =     0.00000000    0.00000000    0.00000000
     atom    6 type  2   force =    -0.00000000    0.00000000    0.00000000
     atom    7 type  2   force =     0.00000000    0.00000000    0.00000000
     atom    8 type  2   force =    -0.00000000    0.00000000   -0.00000000
     atom    9 type  3   force =    -0.00000000   -0.00000000   -0.00000000
     atom   10 type  3   force =     0.00000000    0.00000000    0.00000000
     atom   11 type  3   force =     0.00000000    0.00000000    0.00000000
     atom   12 type  3   force =     0.00000000   -0.00000000    0.00000000
     atom   13 type  3   force =     0.00000000    0.00000000    0.00000000
     atom   14 type  3   force =     0.00000000    0.00000000   -0.00000000

     Total force =     0.000000     Total SCF correction =     0.000000


     Computing stress (Cartesian axis) and pressure

          total   stress  (Ry/bohr**3)                   (kbar)     P=       -2.17
  -0.00001476   0.00000000   0.00000000           -2.17        0.00        0.00
   0.00000000  -0.00001476   0.00000000            0.00       -2.17        0.00
   0.00000000   0.00000000  -0.00001476            0.00        0.00       -2.17


     BFGS Geometry Optimization
     Energy error            =      1.1E-05 Ry
     Gradient error          =      1.3E-31 Ry/Bohr
     Cell gradient error     =      2.2E+00 kbar

     number of scf cycles    =   1
     number of bfgs steps    =   0

     enthalpy           new  =    -262.0726398484 Ry

     new trust radius        =       0.0019312447 bohr
     new conv_thr            =       0.0000100000 Ry

     new unit-cell volume =    683.63114 a.u.^3 (   101.30368 Ang^3 )
     density =      3.55844 g/cm^3

CELL_PARAMETERS (alat=  8.81253680)
   0.999630890   0.000000000   0.000000000
   0.000000000   0.999630890   0.000000000
   0.000000000   0.000000000   0.999630890

ATOMIC_POSITIONS (crystal)
Ca               0.0000000000        0.0000000000        0.0000000000
Ca               0.5000000000        0.5000000000        0.5000000000
B                0.2500000000       -0.0000000000        0.5000000000
B                0.7500000000        0.0000000000        0.5000000000
B                0.5000000000        0.2500000000        0.0000000000
B                0.5000000000        0.7500000000        0.0000000000
B                0.0000000000        0.5000000000        0.2500000000
B               -0.0000000000        0.5000000000        0.7500000000
C                0.2500000000        0.5000000000       -0.0000000000
C                0.7500000000        0.5000000000        0.0000000000
C                0.0000000000        0.2500000000        0.5000000000
C                0.0000000000        0.7500000000        0.5000000000
C                0.5000000000        0.0000000000        0.2500000000
C                0.5000000000        0.0000000000        0.7500000000



     Writing config-only to output data dir ./tmp/CaB3C3.save/ :
     XML data file
     NEW-OLD atomic charge density approx. for the potential
     New effective cutoffs (rho, wfc):  159.74   39.93

     Check: negative core charge=   -0.000001

     total cpu time spent up to now is       11.5 secs

     Self-consistent Calculation

     iteration #  1     ecut=    40.00 Ry     beta= 0.70
     Davidson diagonalization with overlap
     ethr =  1.00E-06,  avg # of iterations =  2.0

     Threshold (ethr) on eigenvalues was too large:
     Diagonalizing with lowered threshold

     Davidson diagonalization with overlap
     ethr =  2.33E-09,  avg # of iterations =  5.0

     total cpu time spent up to now is       13.2 secs

     End of self-consistent calculation

          k = 0.0000 0.0000 0.0000 (  2945 PWs)   bands (ev):

   -26.9166 -26.8812  -8.3390  -8.3390  -8.3390  -8.1548  -8.1548  -8.1548
    -3.8514  -1.1294  -1.1294   2.5074   2.5074   2.5074   3.3589   3.3589
     4.1359   6.0034   6.0034   6.0034   7.7986   7.7986   7.7986  10.2200
    10.2200  10.2200  10.4007  10.4007  10.4007  14.5239  14.5239  14.5239
    18.5307  18.5307  18.5309  19.4592  19.4594

          k = 0.0000 0.0000-0.5002 (  2906 PWs)   bands (ev):

   -26.8895 -26.8895  -8.3883  -8.3883  -8.2434  -8.2434  -8.2378  -8.2378
    -2.4195  -2.4195  -0.0084  -0.0084   2.5442   2.5442   3.4432   3.4432
     4.9408   4.9408   7.2539   7.2539   8.8341   8.8341   9.0607   9.0607
     9.6897   9.6897  10.1579  10.1579  12.6049  12.6049  13.3916  13.3916
    16.3948  16.3948  17.3546  17.3546  18.3894

          k = 0.0000-0.5002-0.5002 (  2968 PWs)   bands (ev):

   -26.8987 -26.8987  -8.5439  -8.5435  -8.2332  -8.2332  -8.1847  -8.1768
    -1.5371  -1.2828  -1.1306  -1.1306   1.1563   2.4791   3.3343   5.0868
     6.4615   6.4615   7.3735   7.3735   8.0377   8.0377   8.7994   8.8180
     9.0606   9.8782  10.8675  10.8675  11.7295  11.7295  12.6331  13.3606
    15.9938  15.9938  17.0223  17.6250  17.6846

          k =-0.5002-0.5002-0.5002 (  2872 PWs)   bands (ev):

   -26.8783 -26.8783  -8.3527  -8.3527  -8.3527  -8.3527  -8.3527  -8.3527
    -0.5282  -0.5282  -0.5282  -0.5282  -0.5282  -0.5282   4.9760   4.9760
     8.7792   8.7792   8.7792   8.7792   8.7792   8.7792   9.1910   9.1910
     9.1910   9.1910   9.1910   9.1910   9.8806   9.8806   9.8806   9.8806
    18.3220  18.3220  18.3233  18.4024  18.4075

     the Fermi energy is    13.3237 ev

!    total energy              =    -262.07264349 Ry
     estimated scf accuracy    <       0.00000518 Ry
     smearing contrib. (-TS)   =      -0.00637659 Ry
     internal energy E=F+TS    =    -262.06626689 Ry

     The total energy is F=E-TS. E is the sum of the following terms:
     one-electron contribution =      23.19848328 Ry
     hartree contribution      =      28.93435471 Ry
     xc contribution           =     -71.01831710 Ry
     ewald contribution        =    -243.18078779 Ry

     convergence has been achieved in   1 iterations

     Forces acting on atoms (cartesian axes, Ry/au):

     atom    1 type  1   force =     0.00000000    0.00000000    0.00000000
     atom    2 type  1   force =     0.00000000    0.00000000    0.00000000
     atom    3 type  2   force =    -0.00000000    0.00000000    0.00000000
     atom    4 type  2   force =     0.00000000    0.00000000    0.00000000
     atom    5 type  2   force =     0.00000000    0.00000000   -0.00000000
     atom    6 type  2   force =    -0.00000000   -0.00000000   -0.00000000
     atom    7 type  2   force =     0.00000000    0.00000000    0.00000000
     atom    8 type  2   force =     0.00000000    0.00000000    0.00000000
     atom    9 type  3   force =    -0.00000000    0.00000000   -0.00000000
     atom   10 type  3   force =    -0.00000000    0.00000000   -0.00000000
     atom   11 type  3   force =     0.00000000    0.00000000    0.00000000
     atom   12 type  3   force =     0.00000000   -0.00000000   -0.00000000
     atom   13 type  3   force =     0.00000000    0.00000000    0.00000000
     atom   14 type  3   force =     0.00000000   -0.00000000   -0.00000000

     Total force =     0.000000     Total SCF correction =     0.000000


     Computing stress (Cartesian axis) and pressure

          total   stress  (Ry/bohr**3)                   (kbar)     P=        0.97
   0.00000660   0.00000000   0.00000000            0.97        0.00        0.00
   0.00000000   0.00000660   0.00000000            0.00        0.97        0.00
   0.00000000   0.00000000   0.00000660            0.00        0.00        0.97

     Energy error            =      3.6E-06 Ry
     Gradient error          =      1.6E-31 Ry/Bohr
     Cell gradient error     =      9.7E-01 kbar

     number of scf cycles    =   2
     number of bfgs steps    =   1

     enthalpy           old  =    -262.0726398484 Ry
     enthalpy           new  =    -262.0726434885 Ry

     CASE: enthalpy          _new < enthalpy          _old

     new trust radius        =       0.0005961590 bohr
     new conv_thr            =       0.0000001000 Ry

     new unit-cell volume =    683.86497 a.u.^3 (   101.33833 Ang^3 )
     density =      3.55722 g/cm^3

CELL_PARAMETERS (alat=  8.81253680)
   0.999744852   0.000000000   0.000000000
   0.000000000   0.999744852   0.000000000
   0.000000000   0.000000000   0.999744852

ATOMIC_POSITIONS (crystal)
Ca               0.0000000000        0.0000000000        0.0000000000
Ca               0.5000000000        0.5000000000        0.5000000000
B                0.2500000000       -0.0000000000        0.5000000000
B                0.7500000000        0.0000000000        0.5000000000
B                0.5000000000        0.2500000000       -0.0000000000
B                0.5000000000        0.7500000000       -0.0000000000
B                0.0000000000        0.5000000000        0.2500000000
B               -0.0000000000        0.5000000000        0.7500000000
C                0.2500000000        0.5000000000       -0.0000000000
C                0.7500000000        0.5000000000       -0.0000000000
C                0.0000000000        0.2500000000        0.5000000000
C                0.0000000000        0.7500000000        0.5000000000
C                0.5000000000        0.0000000000        0.2500000000
C                0.5000000000       -0.0000000000        0.7500000000



     Writing config-only to output data dir ./tmp/CaB3C3.save/ :
     XML data file
     NEW-OLD atomic charge density approx. for the potential
     New effective cutoffs (rho, wfc):  159.70   39.93

     Check: negative core charge=   -0.000001

     total cpu time spent up to now is       14.3 secs

     Self-consistent Calculation

     iteration #  1     ecut=    40.00 Ry     beta= 0.70
     Davidson diagonalization with overlap
     ethr =  1.00E-06,  avg # of iterations =  1.0

     Threshold (ethr) on eigenvalues was too large:
     Diagonalizing with lowered threshold

     Davidson diagonalization with overlap
     ethr =  5.78E-09,  avg # of iterations =  3.2

     total cpu time spent up to now is       15.7 secs

     total energy              =    -262.07264464 Ry
     estimated scf accuracy    <       0.00000551 Ry

     iteration #  2     ecut=    40.00 Ry     beta= 0.70
     Davidson diagonalization with overlap
     ethr =  8.88E-09,  avg # of iterations =  3.5

     total cpu time spent up to now is       16.5 secs

     total energy              =    -262.07264622 Ry
     estimated scf accuracy    <       0.00000078 Ry

     iteration #  3     ecut=    40.00 Ry     beta= 0.70
     Davidson diagonalization with overlap
     ethr =  1.26E-09,  avg # of iterations =  2.0

     total cpu time spent up to now is       17.1 secs

     End of self-consistent calculation

          k = 0.0000 0.0000 0.0000 (  2945 PWs)   bands (ev):

   -26.9210 -26.8857  -8.3434  -8.3434  -8.3434  -8.1594  -8.1594  -8.1594
    -3.8542  -1.1329  -1.1329   2.5025   2.5025   2.5025   3.3559   3.3559
     4.1330   5.9988   5.9988   5.9988   7.7951   7.7951   7.7951  10.2155
    10.2155  10.2155  10.3957  10.3957  10.3957  14.5174  14.5174  14.5174
    18.5237  18.5237  18.5238  19.4528  19.4530

          k = 0.0000 0.0000-0.5001 (  2906 PWs)   bands (ev):

   -26.8940 -26.8940  -8.3926  -8.3926  -8.2479  -8.2479  -8.2423  -8.2423
    -2.4229  -2.4229  -0.0121  -0.0121   2.5393   2.5393   3.4400   3.4400
     4.9372   4.9372   7.2502   7.2502   8.8302   8.8302   9.0559   9.0559
     9.6851   9.6851  10.1522  10.1522  12.5988  12.5988  13.3864  13.3864
    16.3891  16.3892  17.3488  17.3488  18.3843

          k = 0.0000-0.5001-0.5001 (  2968 PWs)   bands (ev):

   -26.9031 -26.9031  -8.5479  -8.5475  -8.2377  -8.2377  -8.1893  -8.1814
    -1.5412  -1.2869  -1.1339  -1.1339   1.1520   2.4743   3.3311   5.0833
     6.4580   6.4580   7.3695   7.3695   8.0330   8.0330   8.7947   8.8132
     9.0557   9.8733  10.8623  10.8623  11.7242  11.7242  12.6270  13.3553
    15.9886  15.9886  17.0171  17.6186  17.6798

          k =-0.5001-0.5001-0.5001 (  2872 PWs)   bands (ev):

   -26.8827 -26.8827  -8.3570  -8.3570  -8.3570  -8.3570  -8.3570  -8.3570
    -0.5321  -0.5321  -0.5321  -0.5321  -0.5321  -0.5321   4.9728   4.9728
     8.7741   8.7741   8.7741   8.7741   8.7741   8.7741   9.1866   9.1866
     9.1866   9.1866   9.1866   9.1866   9.8764   9.8764   9.8764   9.8764
    18.3165  18.3165  18.3177  18.3964  18.4016

     the Fermi energy is    13.3185 ev

!    total energy              =    -262.07264628 Ry
     estimated scf accuracy    <       0.00000005 Ry
     smearing contrib. (-TS)   =      -0.00637845 Ry
     internal energy E=F+TS    =    -262.06626783 Ry

     The total energy is F=E-TS. E is the sum of the following terms:
     one-electron contribution =      23.15901560 Ry
     hartree contribution      =      28.94339500 Ry
     xc contribution           =     -71.01561113 Ry
     ewald contribution        =    -243.15306729 Ry

     convergence has been achieved in   3 iterations

     Forces acting on atoms (cartesian axes, Ry/au):

     atom    1 type  1   force =     0.00000000    0.00000000    0.00000000
     atom    2 type  1   force =     0.00000000    0.00000000    0.00000000
     atom    3 type  2   force =     0.00000000    0.00000000   -0.00000000
     atom    4 type  2   force =    -0.00000000    0.00000000   -0.00000000
     atom    5 type  2   force =     0.00000000   -0.00000000   -0.00000000
     atom    6 type  2   force =     0.00000000    0.00000000   -0.00000000
     atom    7 type  2   force =    -0.00000000   -0.00000000    0.00000000
     atom    8 type  2   force =    -0.00000000   -0.00000000   -0.00000000
     atom    9 type  3   force =     0.00000000    0.00000000    0.00000000
     atom   10 type  3   force =    -0.00000000    0.00000000    0.00000000
     atom   11 type  3   force =     0.00000000   -0.00000000   -0.00000000
     atom   12 type  3   force =     0.00000000    0.00000000   -0.00000000
     atom   13 type  3   force =     0.00000000    0.00000000    0.00000000
     atom   14 type  3   force =     0.00000000    0.00000000   -0.00000000

     Total force =     0.000000     Total SCF correction =     0.000000


     Computing stress (Cartesian axis) and pressure

          total   stress  (Ry/bohr**3)                   (kbar)     P=       -0.06
  -0.00000038   0.00000000   0.00000000           -0.06        0.00        0.00
   0.00000000  -0.00000038   0.00000000            0.00       -0.06        0.00
   0.00000000   0.00000000  -0.00000038            0.00        0.00       -0.06

     Energy error            =      2.8E-06 Ry
     Gradient error          =      3.8E-31 Ry/Bohr
     Cell gradient error     =      5.6E-02 kbar

     bfgs converged in   3 scf cycles and   2 bfgs steps
     (criteria: energy <  1.0E-04 Ry, force <  1.0E-03 Ry/Bohr, cell <  5.0E-01 kbar)

     End of BFGS Geometry Optimization

     Final enthalpy           =    -262.0726462759 Ry

     File ./tmp/CaB3C3.bfgs deleted, as requested
Begin final coordinates
     new unit-cell volume =    683.86497 a.u.^3 (   101.33833 Ang^3 )
     density =      3.55722 g/cm^3

CELL_PARAMETERS (alat=  8.81253680)
   0.999744852   0.000000000   0.000000000
   0.000000000   0.999744852   0.000000000
   0.000000000   0.000000000   0.999744852

ATOMIC_POSITIONS (crystal)
Ca               0.0000000000        0.0000000000        0.0000000000
Ca               0.5000000000        0.5000000000        0.5000000000
B                0.2500000000       -0.0000000000        0.5000000000
B                0.7500000000        0.0000000000        0.5000000000
B                0.5000000000        0.2500000000       -0.0000000000
B                0.5000000000        0.7500000000       -0.0000000000
B                0.0000000000        0.5000000000        0.2500000000
B               -0.0000000000        0.5000000000        0.7500000000
C                0.2500000000        0.5000000000       -0.0000000000
C                0.7500000000        0.5000000000       -0.0000000000
C                0.0000000000        0.2500000000        0.5000000000
C                0.0000000000        0.7500000000        0.5000000000
C                0.5000000000        0.0000000000        0.2500000000
C                0.5000000000       -0.0000000000        0.7500000000
End final coordinates



     Writing config-only to output data dir ./tmp/CaB3C3.save/ :
     XML data file

     Final scf calculation at the relaxed structure.
     The G-vectors are recalculated for the final unit cell
     Results may differ from those at the preceding step.

     G-vector sticks info
     --------------------
     sticks:   dense  smooth     PW     G-vecs:    dense   smooth      PW
     Sum         989     989    293                23439    23439    3887

     Using Slab Decomposition



     bravais-lattice index     =            1
     lattice parameter (alat)  =       8.8125  a.u.
     unit-cell volume          =     683.8650 (a.u.)^3
     number of atoms/cell      =           14
     number of atomic types    =            3
     number of electrons       =        62.00
     number of Kohn-Sham states=           37
     kinetic-energy cutoff     =      40.0000  Ry
     charge density cutoff     =     160.0000  Ry
     scf convergence threshold =      1.0E-07
     mixing beta               =       0.7000
     number of iterations used =            8  plain     mixing
     press convergence thresh. =      5.0E-01
     Exchange-correlation= PBE
                           (   1   4   3   4   0   0   0)

     celldm(1)=   8.812537  celldm(2)=   0.000000  celldm(3)=   0.000000
     celldm(4)=   0.000000  celldm(5)=   0.000000  celldm(6)=   0.000000

     crystal axes: (cart. coord. in units of alat)
               a(1) = (   0.999745   0.000000   0.000000 )  
               a(2) = (   0.000000   0.999745   0.000000 )  
               a(3) = (   0.000000   0.000000   0.999745 )  

     reciprocal axes: (cart. coord. in units 2 pi/alat)
               b(1) = (  1.000255  0.000000  0.000000 )  
               b(2) = (  0.000000  1.000255  0.000000 )  
               b(3) = (  0.000000  0.000000  1.000255 )  


     PseudoPot. # 1 for Ca read from file:
     ./PSEUDO/Ca.upf
     MD5 check sum: 70c88f1a6e4e81b49168c3af07036c03
     Pseudo is Norm-conserving + core correction, Zval = 10.0
     Generated using ONCVPSP code by D. R. Hamann
     Using radial grid of 1766 points,  6 beta functions with: 
                l(1) =   0
                l(2) =   0
                l(3) =   1
                l(4) =   1
                l(5) =   2
                l(6) =   2

     PseudoPot. # 2 for B  read from file:
     ./PSEUDO/B.upf
     MD5 check sum: 72f82fc31bc892420d0cab7e25c88ab8
     Pseudo is Norm-conserving + core correction, Zval =  3.0
     Generated using ONCVPSP code by D. R. Hamann
     Using radial grid of 1534 points,  4 beta functions with: 
                l(1) =   0
                l(2) =   0
                l(3) =   1
                l(4) =   1

     PseudoPot. # 3 for C  read from file:
     ./PSEUDO/C.upf
     MD5 check sum: 34a24e64c0a39f27c6c36b90a16ac686
     Pseudo is Norm-conserving + core correction, Zval =  4.0
     Generated using ONCVPSP code by D. R. Hamann
     Using radial grid of 1248 points,  4 beta functions with: 
                l(1) =   0
                l(2) =   0
                l(3) =   1
                l(4) =   1

     atomic species   valence    mass     pseudopotential
     Ca               10.00    40.07800     Ca( 1.00)
     B                 3.00    10.81100     B ( 1.00)
     C                 4.00    12.01100     C ( 1.00)

     48 Sym. Ops., with inversion, found (24 have fractional translation)



   Cartesian axes

     site n.     atom                  positions (alat units)
         1        Ca     tau(   1) = (   0.0000000   0.0000000   0.0000000  )
         2        Ca     tau(   2) = (   0.4998724   0.4998724   0.4998724  )
         3        B      tau(   3) = (   0.2499362  -0.0000000   0.4998724  )
         4        B      tau(   4) = (   0.7498086   0.0000000   0.4998724  )
         5        B      tau(   5) = (   0.4998724   0.2499362  -0.0000000  )
         6        B      tau(   6) = (   0.4998724   0.7498086  -0.0000000  )
         7        B      tau(   7) = (   0.0000000   0.4998724   0.2499362  )
         8        B      tau(   8) = (  -0.0000000   0.4998724   0.7498086  )
         9        C      tau(   9) = (   0.2499362   0.4998724  -0.0000000  )
        10        C      tau(  10) = (   0.7498086   0.4998724  -0.0000000  )
        11        C      tau(  11) = (   0.0000000   0.2499362   0.4998724  )
        12        C      tau(  12) = (   0.0000000   0.7498086   0.4998724  )
        13        C      tau(  13) = (   0.4998724   0.0000000   0.2499362  )
        14        C      tau(  14) = (   0.4998724  -0.0000000   0.7498086  )

     number of k points=     4  Methfessel-Paxton smearing, width (Ry)=  0.0400
                       cart. coord. in units 2pi/alat
        k(    1) = (   0.0000000   0.0000000   0.0000000), wk =   0.2500000
        k(    2) = (   0.0000000   0.0000000  -0.5001276), wk =   0.7500000
        k(    3) = (   0.0000000  -0.5001276  -0.5001276), wk =   0.7500000
        k(    4) = (  -0.5001276  -0.5001276  -0.5001276), wk =   0.2500000

     Dense  grid:    23439 G-vectors     FFT dimensions: (  36,  36,  36)

     Estimated max dynamical RAM per process >      42.07 MB

     Check: negative core charge=   -0.000001

     Initial potential from superposition of free atoms

     starting charge      61.9884, renormalised to      62.0000
     Starting wfcs are   58 randomized atomic wfcs

     total cpu time spent up to now is       18.7 secs

     Self-consistent Calculation

     iteration #  1     ecut=    40.00 Ry     beta= 0.70
     Davidson diagonalization with overlap
     c_bands:  4 eigenvalues not converged
     c_bands:  3 eigenvalues not converged
     c_bands:  5 eigenvalues not converged
     ethr =  1.00E-06,  avg # of iterations = 19.8

     total cpu time spent up to now is       22.1 secs

     total energy              =    -261.82408843 Ry
     estimated scf accuracy    <       0.92281899 Ry

     iteration #  2     ecut=    40.00 Ry     beta= 0.70
     Davidson diagonalization with overlap
     ethr =  1.49E-03,  avg # of iterations =  4.5

     total cpu time spent up to now is       22.9 secs

     total energy              =    -262.04335033 Ry
     estimated scf accuracy    <       0.13502454 Ry

     iteration #  3     ecut=    40.00 Ry     beta= 0.70
     Davidson diagonalization with overlap
     ethr =  2.18E-04,  avg # of iterations =  2.8

     total cpu time spent up to now is       23.7 secs

     total energy              =    -262.07031265 Ry
     estimated scf accuracy    <       0.00170306 Ry

     iteration #  4     ecut=    40.00 Ry     beta= 0.70
     Davidson diagonalization with overlap
     c_bands:  1 eigenvalues not converged
     ethr =  2.75E-06,  avg # of iterations = 10.8

     total cpu time spent up to now is       25.3 secs

     total energy              =    -262.07260371 Ry
     estimated scf accuracy    <       0.00153571 Ry

     iteration #  5     ecut=    40.00 Ry     beta= 0.70
     Davidson diagonalization with overlap
     ethr =  2.48E-06,  avg # of iterations =  2.0

     total cpu time spent up to now is       25.9 secs

     total energy              =    -262.07246973 Ry
     estimated scf accuracy    <       0.00036813 Ry

     iteration #  6     ecut=    40.00 Ry     beta= 0.70
     Davidson diagonalization with overlap
     ethr =  5.94E-07,  avg # of iterations =  3.5

     total cpu time spent up to now is       26.8 secs

     total energy              =    -262.07260905 Ry
     estimated scf accuracy    <       0.00017431 Ry

     iteration #  7     ecut=    40.00 Ry     beta= 0.70
     Davidson diagonalization with overlap
     c_bands:  1 eigenvalues not converged
     ethr =  2.81E-07,  avg # of iterations =  6.5

     total cpu time spent up to now is       27.7 secs

     total energy              =    -262.07264487 Ry
     estimated scf accuracy    <       0.00000020 Ry

     iteration #  8     ecut=    40.00 Ry     beta= 0.70
     Davidson diagonalization with overlap
     ethr =  3.16E-10,  avg # of iterations =  8.2

     total cpu time spent up to now is       29.4 secs

     total energy              =    -262.07264575 Ry
     estimated scf accuracy    <       0.00000420 Ry

     iteration #  9     ecut=    40.00 Ry     beta= 0.70
     Davidson diagonalization with overlap
     ethr =  3.16E-10,  avg # of iterations =  5.5

     total cpu time spent up to now is       30.6 secs

     End of self-consistent calculation

          k = 0.0000 0.0000 0.0000 (  2945 PWs)   bands (ev):

   -26.9214 -26.8860  -8.3437  -8.3437  -8.3437  -8.1597  -8.1597  -8.1597
    -3.8543  -1.1330  -1.1330   2.5023   2.5023   2.5023   3.3559   3.3559
     4.1330   5.9988   5.9988   5.9988   7.7950   7.7950   7.7950  10.2154
    10.2154  10.2154  10.3956  10.3956  10.3956  14.5172  14.5172  14.5172
    18.5238  18.5238  18.5238  19.4531  19.4531

          k = 0.0000 0.0000-0.5001 (  2906 PWs)   bands (ev):

   -26.8943 -26.8943  -8.3929  -8.3929  -8.2482  -8.2482  -8.2426  -8.2426
    -2.4230  -2.4230  -0.0122  -0.0122   2.5391   2.5391   3.4400   3.4400
     4.9372   4.9372   7.2501   7.2501   8.8301   8.8301   9.0558   9.0558
     9.6850   9.6850  10.1521  10.1521  12.5985  12.5985  13.3864  13.3864
    16.3891  16.3891  17.3485  17.3486  18.3842

          k = 0.0000-0.5001-0.5001 (  2968 PWs)   bands (ev):

   -26.9035 -26.9035  -8.5482  -8.5478  -8.2380  -8.2380  -8.1896  -8.1817
    -1.5413  -1.2870  -1.1340  -1.1340   1.1518   2.4741   3.3311   5.0833
     6.4579   6.4579   7.3694   7.3694   8.0329   8.0329   8.7946   8.8131
     9.0556   9.8733  10.8622  10.8622  11.7240  11.7240  12.6267  13.3552
    15.9885  15.9885  17.0169  17.6182  17.6802

          k =-0.5001-0.5001-0.5001 (  2872 PWs)   bands (ev):

   -26.8831 -26.8831  -8.3573  -8.3573  -8.3573  -8.3573  -8.3573  -8.3573
    -0.5322  -0.5322  -0.5322  -0.5322  -0.5322  -0.5322   4.9728   4.9728
     8.7740   8.7740   8.7740   8.7740   8.7740   8.7740   9.1865   9.1865
     9.1865   9.1865   9.1865   9.1865   9.8763   9.8763   9.8763   9.8763
    18.3164  18.3919  18.4016  18.4022  18.4025

     the Fermi energy is    13.3185 ev

!    total energy              =    -262.07264626 Ry
     estimated scf accuracy    <       0.00000010 Ry
     smearing contrib. (-TS)   =      -0.00637936 Ry
     internal energy E=F+TS    =    -262.06626690 Ry

     The total energy is F=E-TS. E is the sum of the following terms:
     one-electron contribution =      23.15836925 Ry
     hartree contribution      =      28.94441223 Ry
     xc contribution           =     -71.01598110 Ry
     ewald contribution        =    -243.15306729 Ry

     convergence has been achieved in   9 iterations

     Forces acting on atoms (cartesian axes, Ry/au):

     atom    1 type  1   force =     0.00000000    0.00000000    0.00000000
     atom    2 type  1   force =     0.00000000    0.00000000    0.00000000
     atom    3 type  2   force =     0.00000000    0.00000000    0.00000000
     atom    4 type  2   force =     0.00000000    0.00000000    0.00000000
     atom    5 type  2   force =    -0.00000000   -0.00000000   -0.00000000
     atom    6 type  2   force =    -0.00000000   -0.00000000   -0.00000000
     atom    7 type  2   force =     0.00000000    0.00000000    0.00000000
     atom    8 type  2   force =     0.00000000    0.00000000   -0.00000000
     atom    9 type  3   force =     0.00000000   -0.00000000    0.00000000
     atom   10 type  3   force =    -0.00000000   -0.00000000    0.00000000
     atom   11 type  3   force =     0.00000000    0.00000000   -0.00000000
     atom   12 type  3   force =    -0.00000000   -0.00000000   -0.00000000
     atom   13 type  3   force =     0.00000000    0.00000000    0.00000000
     atom   14 type  3   force =     0.00000000    0.00000000    0.00000000

     Total force =     0.000000     Total SCF correction =     0.000000


     Computing stress (Cartesian axis) and pressure

          total   stress  (Ry/bohr**3)                   (kbar)     P=        0.10
   0.00000066   0.00000000   0.00000000            0.10        0.00        0.00
   0.00000000   0.00000066   0.00000000            0.00        0.10        0.00
   0.00000000   0.00000000   0.00000066            0.00        0.00        0.10


     Writing all to output data dir ./tmp/CaB3C3.save/ :
     XML data file, charge density, pseudopotentials, collected wavefunctions

     init_run     :      1.91s CPU      1.98s WALL (       2 calls)
     electrons    :     24.95s CPU     25.30s WALL (       4 calls)
     update_pot   :      0.03s CPU      0.03s WALL (       2 calls)
     forces       :      0.99s CPU      1.00s WALL (       4 calls)
     stress       :      3.16s CPU      3.19s WALL (       4 calls)

     Called by init_run:
     wfcinit      :      1.21s CPU      1.26s WALL (       2 calls)
     potinit      :      0.20s CPU      0.21s WALL (       2 calls)
     hinit0       :      0.48s CPU      0.49s WALL (       2 calls)

     Called by electrons:
     c_bands      :     23.70s CPU     23.99s WALL (      24 calls)
     sum_band     :      0.99s CPU      1.03s WALL (      24 calls)
     v_of_rho     :      0.27s CPU      0.29s WALL (      26 calls)
     mix_rho      :      0.03s CPU      0.04s WALL (      24 calls)

     Called by c_bands:
     init_us_2    :      0.32s CPU      0.34s WALL (     232 calls)
     cegterg      :     23.21s CPU     23.50s WALL (      96 calls)

     Called by *egterg:
     cdiaghg      :      0.65s CPU      0.66s WALL (     599 calls)
     h_psi        :     14.77s CPU     15.03s WALL (     623 calls)
     g_psi        :      0.07s CPU      0.08s WALL (     519 calls)

     Called by h_psi:
     h_psi:calbec :      4.61s CPU      4.63s WALL (     623 calls)
     vloc_psi     :      5.91s CPU      6.14s WALL (     623 calls)
                                        0.00s GPU  (     623 calls)
     add_vuspsi   :      4.18s CPU      4.19s WALL (     623 calls)

     General routines
     calbec       :      8.04s CPU      8.07s WALL (     895 calls)
     fft          :      0.11s CPU      0.12s WALL (     360 calls)
     ffts         :      0.01s CPU      0.01s WALL (      24 calls)
     fftw         :      5.74s CPU      6.05s WALL (   29330 calls)


     PWSCF        :     31.16s CPU     31.62s WALL


   This run was terminated on:  10:15:20  19Jan2026            

=------------------------------------------------------------------------------=
   JOB DONE.
=------------------------------------------------------------------------------=
