
     Program PWSCF v.7.5 starts on 12Jan2026 at 13:37:20 

     This program is part of the open-source Quantum ESPRESSO suite
     for quantum simulation of materials; please cite
         "P. Giannozzi et al., J. Phys.:Condens. Matter 21 395502 (2009);
         "P. Giannozzi et al., J. Phys.:Condens. Matter 29 465901 (2017);
         "P. Giannozzi et al., J. Chem. Phys. 152 154105 (2020);
          URL http://www.quantum-espresso.org", 
     in publications or presentations arising from this work. More details at
     http://www.quantum-espresso.org/quote

     Serial version
     1389 MiB available memory on the printing compute node when the environment starts

     Waiting for input...
     Reading input from standard input

     Current dimensions of program PWSCF are:
     Max number of different atomic species (ntypx) = 10
     Max number of k-points (npk) =  40000
     Max angular momentum in pseudopotentials (lmaxx) =  4

     Atomic positions and unit cell read from directory:
     ./tmp/CaB3C3.save/



     G-vector sticks info
     --------------------
     sticks:   dense  smooth     PW     G-vecs:    dense   smooth      PW
     Sum         989     989    277                23583    23583    3287

     Using Slab Decomposition



     bravais-lattice index     =            1
     lattice parameter (alat)  =       8.8254  a.u.
     unit-cell volume          =     687.3905 (a.u.)^3
     number of atoms/cell      =           14
     number of atomic types    =            3
     number of electrons       =        62.00
     number of Kohn-Sham states=           36
     kinetic-energy cutoff     =      40.0000  Ry
     charge density cutoff     =     160.0000  Ry
     Exchange-correlation= PBE
                           (   1   4   3   4   0   0   0)

     celldm(1)=   8.825402  celldm(2)=   0.000000  celldm(3)=   0.000000
     celldm(4)=   0.000000  celldm(5)=   0.000000  celldm(6)=   0.000000

     crystal axes: (cart. coord. in units of alat)
               a(1) = (   1.000000   0.000000   0.000000 )  
               a(2) = (   0.000000   1.000000   0.000000 )  
               a(3) = (   0.000000   0.000000   1.000000 )  

     reciprocal axes: (cart. coord. in units 2 pi/alat)
               b(1) = (  1.000000  0.000000  0.000000 )  
               b(2) = (  0.000000  1.000000  0.000000 )  
               b(3) = (  0.000000  0.000000  1.000000 )  


     PseudoPot. # 1 for Ca read from file:
     ./PSEUDO/Ca.upf
     MD5 check sum: 70c88f1a6e4e81b49168c3af07036c03
     Pseudo is Norm-conserving + core correction, Zval = 10.0
     Generated using ONCVPSP code by D. R. Hamann
     Using radial grid of 1766 points,  6 beta functions with: 
                l(1) =   0
                l(2) =   0
                l(3) =   1
                l(4) =   1
                l(5) =   2
                l(6) =   2

     PseudoPot. # 2 for B  read from file:
     ./PSEUDO/B.upf
     MD5 check sum: 72f82fc31bc892420d0cab7e25c88ab8
     Pseudo is Norm-conserving + core correction, Zval =  3.0
     Generated using ONCVPSP code by D. R. Hamann
     Using radial grid of 1534 points,  4 beta functions with: 
                l(1) =   0
                l(2) =   0
                l(3) =   1
                l(4) =   1

     PseudoPot. # 3 for C  read from file:
     ./PSEUDO/C.upf
     MD5 check sum: 34a24e64c0a39f27c6c36b90a16ac686
     Pseudo is Norm-conserving + core correction, Zval =  4.0
     Generated using ONCVPSP code by D. R. Hamann
     Using radial grid of 1248 points,  4 beta functions with: 
                l(1) =   0
                l(2) =   0
                l(3) =   1
                l(4) =   1

     atomic species   valence    mass     pseudopotential
     Ca               10.00    40.07800     Ca( 1.00)
     B                 3.00    10.81100     B ( 1.00)
     C                 4.00    12.01100     C ( 1.00)

     48 Sym. Ops., with inversion, found (24 have fractional translation)



   Cartesian axes

     site n.     atom                  positions (alat units)
         1        Ca     tau(   1) = (   0.0000000   0.0000000   0.0000000  )
         2        Ca     tau(   2) = (   0.5000000   0.5000000   0.5000000  )
         3        B      tau(   3) = (   0.2500000   0.0000000   0.5000000  )
         4        B      tau(   4) = (   0.7500000   0.0000000   0.5000000  )
         5        B      tau(   5) = (   0.5000000   0.2500000   0.0000000  )
         6        B      tau(   6) = (   0.5000000   0.7500000   0.0000000  )
         7        B      tau(   7) = (   0.0000000   0.5000000   0.2500000  )
         8        B      tau(   8) = (   0.0000000   0.5000000   0.7500000  )
         9        C      tau(   9) = (   0.2500000   0.5000000   0.0000000  )
        10        C      tau(  10) = (   0.7500000   0.5000000   0.0000000  )
        11        C      tau(  11) = (   0.0000000   0.2500000   0.5000000  )
        12        C      tau(  12) = (   0.0000000   0.7500000   0.5000000  )
        13        C      tau(  13) = (   0.5000000   0.0000000   0.2500000  )
        14        C      tau(  14) = (   0.5000000   0.0000000   0.7500000  )

     number of k points=    21
                       cart. coord. in units 2pi/alat
        k(    1) = (   0.2500000   0.2500000   0.0000000), wk =   0.0952381
        k(    2) = (   0.2250000   0.2250000   0.0000000), wk =   0.0952381
        k(    3) = (   0.2000000   0.2000000   0.0000000), wk =   0.0952381
        k(    4) = (   0.1750000   0.1750000   0.0000000), wk =   0.0952381
        k(    5) = (   0.1500000   0.1500000   0.0000000), wk =   0.0952381
        k(    6) = (   0.1250000   0.1250000   0.0000000), wk =   0.0952381
        k(    7) = (   0.1000000   0.1000000   0.0000000), wk =   0.0952381
        k(    8) = (   0.0750000   0.0750000   0.0000000), wk =   0.0952381
        k(    9) = (   0.0500000   0.0500000   0.0000000), wk =   0.0952381
        k(   10) = (   0.0250000   0.0250000   0.0000000), wk =   0.0952381
        k(   11) = (   0.0000000   0.0000000   0.0000000), wk =   0.0952381
        k(   12) = (   0.0250000   0.0000000   0.0000000), wk =   0.0952381
        k(   13) = (   0.0500000   0.0000000   0.0000000), wk =   0.0952381
        k(   14) = (   0.0750000   0.0000000   0.0000000), wk =   0.0952381
        k(   15) = (   0.1000000   0.0000000   0.0000000), wk =   0.0952381
        k(   16) = (   0.1250000   0.0000000   0.0000000), wk =   0.0952381
        k(   17) = (   0.1500000   0.0000000   0.0000000), wk =   0.0952381
        k(   18) = (   0.1750000   0.0000000   0.0000000), wk =   0.0952381
        k(   19) = (   0.2000000   0.0000000   0.0000000), wk =   0.0952381
        k(   20) = (   0.2250000   0.0000000   0.0000000), wk =   0.0952381
        k(   21) = (   0.2500000   0.0000000   0.0000000), wk =   0.0952381

     Dense  grid:    23583 G-vectors     FFT dimensions: (  36,  36,  36)

     Estimated max dynamical RAM per process >      25.31 MB

     Check: negative core charge=   -0.000001

     The potential is recalculated from file :
     ./tmp/CaB3C3.save/charge-density

     Starting wfcs are   58 randomized atomic wfcs

     Band Structure Calculation
     Davidson diagonalization with overlap
     c_bands:  1 eigenvalues not converged
     c_bands:  1 eigenvalues not converged
     c_bands:  1 eigenvalues not converged
     c_bands:  1 eigenvalues not converged
     c_bands:  1 eigenvalues not converged
     c_bands:  1 eigenvalues not converged

     ethr =  1.61E-08,  avg # of iterations = 92.0

     total cpu time spent up to now is       54.3 secs

     End of band structure calculation

          k = 0.2500 0.2500 0.0000 (  2929 PWs)   bands (ev):

   -26.9930 -26.9785  -8.5274  -8.4531  -8.3753  -8.3544  -8.2853  -8.2593
    -3.0848  -1.3557  -1.0275   0.8470   1.3013   2.4563   3.2027   4.8313
     5.1357   5.7054   6.3330   6.8331   7.4667   8.3280   8.6445   9.5784
     9.7730   9.7738  10.7013  10.8147  11.5357  12.4564  12.9299  13.9171
    16.6915  17.0322  17.5375  17.6835

          k = 0.2250 0.2250 0.0000 (  2937 PWs)   bands (ev):

   -26.9959 -26.9791  -8.5119  -8.4235  -8.3833  -8.3663  -8.2793  -8.2573
    -3.2243  -1.3319  -1.0344   1.0671   1.3908   2.4566   3.2195   4.5699
     5.1989   5.5009   6.2690   6.7016   7.4980   8.3408   8.8375   9.5142
     9.6870   9.8389  10.6023  10.6712  11.3490  12.8071  13.1819  14.0070
    16.8494  17.2115  17.7649  17.8386

          k = 0.2000 0.2000 0.0000 (  2935 PWs)   bands (ev):

   -27.0012 -26.9736  -8.4966  -8.3938  -8.3911  -8.3776  -8.2734  -8.2555
    -3.3540  -1.3061  -1.0474   1.2862   1.4971   2.4566   3.2405   4.3287
     5.2742   5.2932   6.2052   6.5710   7.5322   8.3402   8.9726   9.3197
     9.7934   9.9084  10.5145  10.5320  11.1687  13.1323  13.4211  14.0927
    17.0269  17.4316  17.7848  17.9935

          k = 0.1750 0.1750 0.0000 (  2947 PWs)   bands (ev):

   -27.0034 -26.9767  -8.4820  -8.3986  -8.3883  -8.3647  -8.2679  -8.2537
    -3.4732  -1.2815  -1.0660   1.5025   1.6195   2.4548   3.2659   4.1092
     5.0793   5.3611   6.1420   6.4444   7.5686   8.3120   8.8659   9.3629
     9.8833   9.9815  10.4173  10.4321  10.9938  13.4221  13.6355  14.1612
    17.2133  17.6822  17.7529  18.1825

          k = 0.1500 0.1500 0.0000 (  2941 PWs)   bands (ev):

   -27.0025 -26.9760  -8.4685  -8.4054  -8.3979  -8.3370  -8.2627  -8.2520
    -3.5785  -1.2573  -1.0872   1.7099   1.7561   2.4532   3.2931   3.9166
     4.8703   5.4585   6.0844   6.3257   7.6071   8.2526   8.6449   9.5259
     9.9654  10.0573  10.3395  10.3594  10.8339  13.6869  13.8297  14.2320
    17.4093  17.7739  17.9544  18.3712

          k = 0.1250 0.1250 0.0000 (  2933 PWs)   bands (ev):

   -27.0013 -26.9746  -8.4564  -8.4115  -8.4063  -8.3117  -8.2581  -8.2505
    -3.6690  -1.2346  -1.1086   1.9015   1.9025   2.4524   3.3181   3.7453
     4.6696   5.5624   6.0348   6.2168   7.6438   8.1610   8.4205   9.6966
    10.0294  10.1339  10.2980  10.2994  10.6924  13.9205  14.0089  14.2963
    17.6123  17.8425  18.2333  18.4643

          k = 0.1000 0.1000 0.0000 (  2929 PWs)   bands (ev):

   -27.0031 -26.9717  -8.4460  -8.4167  -8.4133  -8.2896  -8.2542  -8.2492
    -3.7468  -1.2137  -1.1294   2.0504   2.0770   2.4503   3.3359   3.5995
     4.4847   5.6680   5.9968   6.1214   7.6776   8.0490   8.2090   9.8516
    10.0808  10.1999  10.2476  10.2876  10.5688  14.1091  14.1596  14.3439
    17.8182  17.9520  18.4602  18.4766

          k = 0.0750 0.0750 0.0000 (  2939 PWs)   bands (ev):

   -27.0054 -26.9739  -8.4376  -8.4208  -8.4190  -8.2715  -8.2510  -8.2482
    -3.8090  -1.1966  -1.1471   2.1934   2.2268   2.4474   3.3420   3.4809
     4.3247   5.7679   5.9672   6.0429   7.7063   7.9346   8.0244   9.9795
    10.1144  10.2070  10.2549  10.2949  10.4672  14.2314  14.2745  14.3800
    18.0077  18.0885  18.4470  18.5399

          k = 0.0500 0.0500 0.0000 (  2943 PWs)   bands (ev):

   -27.0074 -26.9739  -8.4314  -8.4239  -8.4231  -8.2580  -8.2488  -8.2475
    -3.8528  -1.1840  -1.1616   2.3196   2.3421   2.4451   3.3354   3.3903
     4.1997   5.8529   5.9480   5.9830   7.7281   7.8367   7.8775  10.0752
    10.1380  10.1782  10.2962  10.3117  10.3920  14.3437  14.3636  14.4108
    18.1828  18.2312  18.4306  18.4977

          k = 0.0250 0.0250 0.0000 (  2945 PWs)   bands (ev):

   -27.0086 -26.9740  -8.4277  -8.4258  -8.4256  -8.2497  -8.2473  -8.2470
    -3.8794  -1.1763  -1.1706   2.4096   2.4174   2.4440   3.3211   3.3333
     4.1209   5.9121   5.9367   5.9460   7.7426   7.7707   7.7813  10.1350
    10.1509  10.1610  10.3217  10.3251  10.3459  14.4126  14.4173  14.4292
    18.3243  18.3503  18.4173  18.4606

          k = 0.0000 0.0000 0.0000 (  2945 PWs)   bands (ev):

   -27.0087 -26.9740  -8.4264  -8.4264  -8.4264  -8.2469  -8.2469  -8.2469
    -3.8885  -1.1736  -1.1736   2.4436   2.4436   2.4436   3.3135   3.3135
     4.0942   5.9335   5.9335   5.9335   7.7477   7.7477   7.7477  10.1553
    10.1553  10.1553  10.3303  10.3303  10.3303  14.4354  14.4354  14.4354
    18.4123  18.4123  18.4123  18.4315

          k = 0.0250 0.0000 0.0000 (  2945 PWs)   bands (ev):

   -27.0087 -26.9740  -8.4269  -8.4261  -8.4261  -8.2481  -8.2471  -8.2471
    -3.8839  -1.1764  -1.1706   2.4135   2.4438   2.4438   3.3149   3.3253
     4.1079   5.9227   5.9227   5.9522   7.7505   7.7593   7.7593  10.1502
    10.1531  10.1531  10.3156  10.3381  10.3381  14.4181  14.4323  14.4323
    18.3322  18.4149  18.4149  18.4389

          k = 0.0500 0.0000 0.0000 (  2945 PWs)   bands (ev):

   -27.0084 -26.9739  -8.4285  -8.4251  -8.4251  -8.2518  -8.2478  -8.2478
    -3.8704  -1.1849  -1.1617   2.3320   2.4444   2.4444   3.3191   3.3502
     4.1514   5.8913   5.8913   6.0072   7.7589   7.7929   7.7929  10.1348
    10.1467  10.1467  10.2719  10.3615  10.3615  14.3666  14.4230  14.4230
    18.1895  18.4226  18.4226  18.4598

          k = 0.0750 0.0000 0.0000 (  2941 PWs)   bands (ev):

   -27.0066 -26.9739  -8.4311  -8.4236  -8.4236  -8.2579  -8.2490  -8.2490
    -3.8487  -1.1990  -1.1467   2.2174   2.4457   2.4457   3.3273   3.3692
     4.2293   5.8432   5.8432   6.0961   7.7731   7.8461   7.8461  10.1094
    10.1364  10.1364  10.2001  10.4007  10.4007  14.2802  14.4073  14.4073
    18.0080  18.4350  18.4350  18.4867

          k = 0.1000 0.0000 0.0000 (  2933 PWs)   bands (ev):

   -27.0031 -26.9739  -8.4345  -8.4214  -8.4214  -8.2662  -8.2506  -8.2506
    -3.8176  -1.2193  -1.1259   2.0845   2.4472   2.4472   3.3379   3.3718
     4.3409   5.7805   5.7805   6.2153   7.7932   7.9143   7.9143  10.0744
    10.1049  10.1220  10.1220  10.4563  10.4563  14.1646  14.3856  14.3856
    17.8060  18.4510  18.4510  18.5116

          k = 0.1250 0.0000 0.0000 (  2926 PWs)   bands (ev):

   -27.0027 -26.9712  -8.4388  -8.4187  -8.4187  -8.2764  -8.2527  -8.2527
    -3.7776  -1.2465  -1.0991   1.9399   2.4492   2.4492   3.3490   3.3591
     4.4801   5.7079   5.7079   6.3589   7.8184   7.9928   7.9928   9.9850
    10.0305  10.1062  10.1062  10.5264  10.5264  14.0416  14.3588  14.3588
    17.6013  18.4673  18.4673  18.5085

          k = 0.1500 0.0000 0.0000 (  2938 PWs)   bands (ev):

   -27.0037 -26.9744  -8.4438  -8.4154  -8.4154  -8.2884  -8.2554  -8.2554
    -3.7307  -1.2813  -1.0683   1.7906   2.4508   2.4508   3.3354   3.3617
     4.6386   5.6288   5.6288   6.5240   7.8491   8.0779   8.0779   9.8441
     9.9769  10.0817  10.0817  10.6103  10.6103  13.8683  14.3230  14.3230
    17.3917  18.4448  18.4721  18.4721

          k = 0.1750 0.0000 0.0000 (  2938 PWs)   bands (ev):

   -27.0045 -26.9732  -8.4490  -8.4115  -8.4115  -8.3019  -8.2584  -8.2584
    -3.6753  -1.3237  -1.0299   1.6390   2.4531   2.4531   3.3078   3.3757
     4.8071   5.5467   5.5467   6.7082   7.8852   8.1656   8.1656   9.6858
     9.9167  10.0547  10.0547  10.7109  10.7109  13.6844  14.2859  14.2859
    17.1928  18.3167  18.4421  18.4421

          k = 0.2000 0.0000 0.0000 (  2942 PWs)   bands (ev):

   -27.0052 -26.9738  -8.4546  -8.4072  -8.4072  -8.3165  -8.2618  -8.2618
    -3.6126  -1.3731  -0.9872   1.4904   2.4553   2.4553   3.2815   3.3886
     4.9871   5.4637   5.4637   6.9089   7.9258   8.2523   8.2523   9.5145
     9.8458  10.0236  10.0236  10.8257  10.8257  13.4707  14.2457  14.2457
    17.0050  18.1563  18.3465  18.3465

          k = 0.2250 0.0000 0.0000 (  2934 PWs)   bands (ev):

   -27.0012 -26.9743  -8.4604  -8.4024  -8.4024  -8.3319  -8.2657  -8.2657
    -3.5432  -1.4309  -0.9375   1.3432   2.4588   2.4588   3.2606   3.4032
     5.1714   5.3827   5.3827   7.1251   7.9733   8.3430   8.3430   9.3327
     9.7727   9.9903   9.9903  10.9553  10.9553  13.2361  14.1915  14.1915
    16.8325  17.9817  18.2218  18.2218

          k = 0.2500 0.0000 0.0000 (  2922 PWs)   bands (ev):

   -26.9971 -26.9734  -8.4660  -8.3971  -8.3971  -8.3478  -8.2700  -8.2700
    -3.4653  -1.4961  -0.8826   1.1982   2.4616   2.4616   3.2451   3.4175
     5.3043   5.3043   5.3571   7.3535   8.0251   8.4308   8.4308   9.1456
     9.6942   9.9516   9.9516  11.0987  11.0987  12.9965  14.1394  14.1394
    16.6735  17.7995  18.0992  18.0992

     Writing all to output data dir ./tmp/CaB3C3.save/ :
     XML data file, pseudopotentials, collected wavefunctions

     init_run     :      0.19s CPU      0.20s WALL (       1 calls)
     electrons    :     52.95s CPU     54.04s WALL (       1 calls)

     Called by init_run:
     wfcinit      :      0.00s CPU      0.00s WALL (       1 calls)
     potinit      :      0.02s CPU      0.02s WALL (       1 calls)
     hinit0       :      0.16s CPU      0.16s WALL (       1 calls)

     Called by electrons:
     c_bands      :     52.95s CPU     54.04s WALL (       1 calls)
     v_of_rho     :      0.02s CPU      0.02s WALL (       1 calls)

     Called by c_bands:
     init_us_2    :      0.02s CPU      0.04s WALL (      21 calls)
     cegterg      :     50.82s CPU     51.78s WALL (     105 calls)

     Called by *egterg:
     cdiaghg      :      2.03s CPU      2.06s WALL (    1952 calls)
     h_psi        :     30.13s CPU     30.91s WALL (    2057 calls)
     g_psi        :      0.18s CPU      0.19s WALL (    1931 calls)

     Called by h_psi:
     h_psi:calbec :      9.51s CPU      9.56s WALL (    2057 calls)
     vloc_psi     :     11.94s CPU     12.50s WALL (    2057 calls)
                                        0.00s GPU  (    2057 calls)
     add_vuspsi   :      8.56s CPU      8.59s WALL (    2057 calls)

     General routines
     calbec       :      9.49s CPU      9.55s WALL (    2057 calls)
     fft          :      0.00s CPU      0.01s WALL (      11 calls)
     fftw         :     10.26s CPU     10.89s WALL (   51906 calls)
     davcio       :      0.00s CPU      0.03s WALL (      42 calls)


     PWSCF        :     53.23s CPU     54.37s WALL


   This run was terminated on:  13:38:15  12Jan2026            

=------------------------------------------------------------------------------=
   JOB DONE.
=------------------------------------------------------------------------------=
