
     Program PWSCF v.7.5 starts on 12Jan2026 at 14: 7:18 

     This program is part of the open-source Quantum ESPRESSO suite
     for quantum simulation of materials; please cite
         "P. Giannozzi et al., J. Phys.:Condens. Matter 21 395502 (2009);
         "P. Giannozzi et al., J. Phys.:Condens. Matter 29 465901 (2017);
         "P. Giannozzi et al., J. Chem. Phys. 152 154105 (2020);
          URL http://www.quantum-espresso.org", 
     in publications or presentations arising from this work. More details at
     http://www.quantum-espresso.org/quote

     Serial version
     1022 MiB available memory on the printing compute node when the environment starts

     Waiting for input...
     Reading input from standard input

     Current dimensions of program PWSCF are:
     Max number of different atomic species (ntypx) = 10
     Max number of k-points (npk) =  40000
     Max angular momentum in pseudopotentials (lmaxx) =  4


     G-vector sticks info
     --------------------
     sticks:   dense  smooth     PW     G-vecs:    dense   smooth      PW
     Sum         989     989    293                23583    23583    3887

     Using Slab Decomposition



     bravais-lattice index     =            1
     lattice parameter (alat)  =       8.8254  a.u.
     unit-cell volume          =     687.3905 (a.u.)^3
     number of atoms/cell      =           14
     number of atomic types    =            3
     number of electrons       =        60.00
     number of Kohn-Sham states=           36
     kinetic-energy cutoff     =      40.0000  Ry
     charge density cutoff     =     160.0000  Ry
     scf convergence threshold =      1.0E-05
     mixing beta               =       0.7000
     number of iterations used =            8  plain     mixing
     Exchange-correlation= PBE
                           (   1   4   3   4   0   0   0)

     celldm(1)=   8.825402  celldm(2)=   0.000000  celldm(3)=   0.000000
     celldm(4)=   0.000000  celldm(5)=   0.000000  celldm(6)=   0.000000

     crystal axes: (cart. coord. in units of alat)
               a(1) = (   1.000000   0.000000   0.000000 )  
               a(2) = (   0.000000   1.000000   0.000000 )  
               a(3) = (   0.000000   0.000000   1.000000 )  

     reciprocal axes: (cart. coord. in units 2 pi/alat)
               b(1) = (  1.000000  0.000000  0.000000 )  
               b(2) = (  0.000000  1.000000  0.000000 )  
               b(3) = (  0.000000  0.000000  1.000000 )  


     PseudoPot. # 1 for K  read from file:
     ./PSEUDO/K.upf
     MD5 check sum: 0aa97b2c023445f040759afc9fdb6c80
     Pseudo is Norm-conserving + core correction, Zval =  9.0
     Generated using ONCVPSP code by D. R. Hamann
     Using radial grid of 2222 points,  6 beta functions with: 
                l(1) =   0
                l(2) =   0
                l(3) =   1
                l(4) =   1
                l(5) =   2
                l(6) =   2

     PseudoPot. # 2 for B  read from file:
     ./PSEUDO/B.upf
     MD5 check sum: 72f82fc31bc892420d0cab7e25c88ab8
     Pseudo is Norm-conserving + core correction, Zval =  3.0
     Generated using ONCVPSP code by D. R. Hamann
     Using radial grid of 1534 points,  4 beta functions with: 
                l(1) =   0
                l(2) =   0
                l(3) =   1
                l(4) =   1

     PseudoPot. # 3 for C  read from file:
     ./PSEUDO/C.upf
     MD5 check sum: 34a24e64c0a39f27c6c36b90a16ac686
     Pseudo is Norm-conserving + core correction, Zval =  4.0
     Generated using ONCVPSP code by D. R. Hamann
     Using radial grid of 1248 points,  4 beta functions with: 
                l(1) =   0
                l(2) =   0
                l(3) =   1
                l(4) =   1

     atomic species   valence    mass     pseudopotential
     K                 9.00    39.09830     K ( 1.00)
     B                 3.00    10.81100     B ( 1.00)
     C                 4.00    12.01100     C ( 1.00)

     48 Sym. Ops., with inversion, found (24 have fractional translation)



   Cartesian axes

     site n.     atom                  positions (alat units)
         1        K      tau(   1) = (   0.0000000   0.0000000   0.0000000  )
         2        K      tau(   2) = (   0.5000000   0.5000000   0.5000000  )
         3        B      tau(   3) = (   0.2500000   0.0000000   0.5000000  )
         4        B      tau(   4) = (   0.7500000   0.0000000   0.5000000  )
         5        B      tau(   5) = (   0.5000000   0.2500000   0.0000000  )
         6        B      tau(   6) = (   0.5000000   0.7500000   0.0000000  )
         7        B      tau(   7) = (   0.0000000   0.5000000   0.2500000  )
         8        B      tau(   8) = (   0.0000000   0.5000000   0.7500000  )
         9        C      tau(   9) = (   0.2500000   0.5000000   0.0000000  )
        10        C      tau(  10) = (   0.7500000   0.5000000   0.0000000  )
        11        C      tau(  11) = (   0.0000000   0.2500000   0.5000000  )
        12        C      tau(  12) = (   0.0000000   0.7500000   0.5000000  )
        13        C      tau(  13) = (   0.5000000   0.0000000   0.2500000  )
        14        C      tau(  14) = (   0.5000000   0.0000000   0.7500000  )

     number of k points=     4  Methfessel-Paxton smearing, width (Ry)=  0.0400
                       cart. coord. in units 2pi/alat
        k(    1) = (   0.0000000   0.0000000   0.0000000), wk =   0.2500000
        k(    2) = (   0.0000000   0.0000000  -0.5000000), wk =   0.7500000
        k(    3) = (   0.0000000  -0.5000000  -0.5000000), wk =   0.7500000
        k(    4) = (  -0.5000000  -0.5000000  -0.5000000), wk =   0.2500000

     Dense  grid:    23583 G-vectors     FFT dimensions: (  36,  36,  36)

     Estimated max dynamical RAM per process >      38.24 MB

     Initial potential from superposition of free atoms

     starting charge      59.9598, renormalised to      60.0000
     Starting wfcs are   58 randomized atomic wfcs

     total cpu time spent up to now is        0.8 secs

     Self-consistent Calculation

     iteration #  1     ecut=    40.00 Ry     beta= 0.70
     Davidson diagonalization with overlap
     ethr =  1.00E-02,  avg # of iterations =  3.2

     total cpu time spent up to now is        1.7 secs

     total energy              =    -226.71524915 Ry
     estimated scf accuracy    <       0.83543388 Ry

     iteration #  2     ecut=    40.00 Ry     beta= 0.70
     Davidson diagonalization with overlap
     ethr =  1.39E-03,  avg # of iterations =  3.8

     total cpu time spent up to now is        2.6 secs

     total energy              =    -226.93025241 Ry
     estimated scf accuracy    <       0.08036420 Ry

     iteration #  3     ecut=    40.00 Ry     beta= 0.70
     Davidson diagonalization with overlap
     ethr =  1.34E-04,  avg # of iterations =  3.0

     total cpu time spent up to now is        3.3 secs

     total energy              =    -226.94654694 Ry
     estimated scf accuracy    <       0.00210488 Ry

     iteration #  4     ecut=    40.00 Ry     beta= 0.70
     Davidson diagonalization with overlap
     c_bands:  2 eigenvalues not converged
     ethr =  3.51E-06,  avg # of iterations = 10.2

     total cpu time spent up to now is        4.7 secs

     total energy              =    -226.94825645 Ry
     estimated scf accuracy    <       0.00114287 Ry

     iteration #  5     ecut=    40.00 Ry     beta= 0.70
     Davidson diagonalization with overlap
     ethr =  1.90E-06,  avg # of iterations =  4.0

     total cpu time spent up to now is        5.4 secs

     total energy              =    -226.94851173 Ry
     estimated scf accuracy    <       0.00001231 Ry

     iteration #  6     ecut=    40.00 Ry     beta= 0.70
     Davidson diagonalization with overlap
     ethr =  2.05E-08,  avg # of iterations =  6.0

     total cpu time spent up to now is        6.8 secs

     total energy              =    -226.94849506 Ry
     estimated scf accuracy    <       0.00008944 Ry

     iteration #  7     ecut=    40.00 Ry     beta= 0.70
     Davidson diagonalization with overlap
     ethr =  2.05E-08,  avg # of iterations =  4.0

     total cpu time spent up to now is        7.9 secs

     End of self-consistent calculation

          k = 0.0000 0.0000 0.0000 (  2945 PWs)   bands (ev):

   -16.9646 -16.8194  -4.2832  -2.0529  -2.0529  -2.0529  -1.9928  -1.9928
    -0.8625  -0.8625  -0.8625   2.4766   2.4766   2.7577   2.7577   2.7577
     3.4366   5.5951   5.5951   5.5951   7.2803   7.2803   7.2803   9.5349
     9.5349   9.5349   9.9620   9.9620   9.9620  13.4577  13.4577  13.4577
    18.2471  18.2473  18.2473  19.4785

          k = 0.0000 0.0000-0.5000 (  2906 PWs)   bands (ev):

   -16.8739 -16.8739  -4.1802  -4.1802  -1.4873  -1.4873  -1.3316  -1.3316
    -0.8860  -0.8860   0.0061   0.0061   2.2729   2.2729   2.9277   2.9277
     4.8588   4.8588   6.6650   6.6650   8.2578   8.2578   8.8032   8.8032
     9.2046   9.2046   9.2098   9.2098  11.7077  11.7077  12.4222  12.4222
    16.7057  16.7057  18.3136  18.3136

          k = 0.0000-0.5000-0.5000 (  2968 PWs)   bands (ev):

   -16.8726 -16.8726  -4.3532  -4.2474  -1.8083  -1.8083  -1.6130  -1.2521
    -1.2521  -1.2319   1.0748   1.1659   1.3465   1.6611   3.0973   4.4240
     6.0103   6.0103   7.2506   7.2506   7.6282   7.6282   7.8912   8.1688
     8.1866   8.9547  10.1169  10.1169  10.8337  10.8337  11.7345  12.3638
    16.3833  16.3833  18.4212  18.5596

          k =-0.5000-0.5000-0.5000 (  3016 PWs)   bands (ev):

   -16.8701 -16.8701  -3.1937  -3.1937  -3.1937  -3.1937  -3.1937  -3.1937
     1.1025   1.1025   1.1025   1.1025   1.1025   1.1025   4.8174   4.8174
     7.8398   7.8398   7.8398   7.8398   7.8398   7.8398   8.3878   8.3878
     8.3878   8.3878   8.3878   8.3878   9.3152   9.3152   9.3152   9.3152
    19.0528  19.0528  19.0528  19.0529

     the Fermi energy is    11.7671 ev

!    total energy              =    -226.94851673 Ry
     estimated scf accuracy    <       0.00000248 Ry
     smearing contrib. (-TS)   =      -0.00458973 Ry
     internal energy E=F+TS    =    -226.94392700 Ry

     The total energy is F=E-TS. E is the sum of the following terms:
     one-electron contribution =      38.70628661 Ry
     hartree contribution      =      21.59538235 Ry
     xc contribution           =     -66.91541933 Ry
     ewald contribution        =    -220.33017664 Ry

     convergence has been achieved in   7 iterations

     Forces acting on atoms (cartesian axes, Ry/au):

     atom    1 type  1   force =     0.00000000    0.00000000    0.00000000
     atom    2 type  1   force =     0.00000000    0.00000000    0.00000000
     atom    3 type  2   force =    -0.00000000   -0.00000000    0.00000000
     atom    4 type  2   force =     0.00000000    0.00000000    0.00000000
     atom    5 type  2   force =     0.00000000    0.00000000   -0.00000000
     atom    6 type  2   force =    -0.00000000   -0.00000000   -0.00000000
     atom    7 type  2   force =     0.00000000    0.00000000   -0.00000000
     atom    8 type  2   force =     0.00000000    0.00000000    0.00000000
     atom    9 type  3   force =     0.00000000    0.00000000    0.00000000
     atom   10 type  3   force =     0.00000000   -0.00000000   -0.00000000
     atom   11 type  3   force =     0.00000000    0.00000000    0.00000000
     atom   12 type  3   force =     0.00000000   -0.00000000    0.00000000
     atom   13 type  3   force =     0.00000000    0.00000000    0.00000000
     atom   14 type  3   force =     0.00000000    0.00000000   -0.00000000

     Total force =     0.000000     Total SCF correction =     0.000000


     Computing stress (Cartesian axis) and pressure

          total   stress  (Ry/bohr**3)                   (kbar)     P=       74.34
   0.00050537   0.00000000   0.00000000           74.34        0.00        0.00
   0.00000000   0.00050537   0.00000000            0.00       74.34        0.00
   0.00000000   0.00000000   0.00050537            0.00        0.00       74.34


     Writing all to output data dir ./tmp/CaB3C3.save/ :
     XML data file, charge density, pseudopotentials, collected wavefunctions

     init_run     :      0.72s CPU      0.75s WALL (       1 calls)
     electrons    :      6.89s CPU      7.04s WALL (       1 calls)
     forces       :      0.24s CPU      0.25s WALL (       1 calls)
     stress       :      0.75s CPU      0.75s WALL (       1 calls)

     Called by init_run:
     wfcinit      :      0.47s CPU      0.50s WALL (       1 calls)
     potinit      :      0.08s CPU      0.08s WALL (       1 calls)
     hinit0       :      0.16s CPU      0.16s WALL (       1 calls)

     Called by electrons:
     c_bands      :      6.53s CPU      6.65s WALL (       7 calls)
     sum_band     :      0.28s CPU      0.30s WALL (       7 calls)
     v_of_rho     :      0.08s CPU      0.09s WALL (       8 calls)
     mix_rho      :      0.01s CPU      0.01s WALL (       7 calls)

     Called by c_bands:
     init_us_2    :      0.10s CPU      0.10s WALL (      68 calls)
     cegterg      :      6.39s CPU      6.51s WALL (      28 calls)

     Called by *egterg:
     cdiaghg      :      0.17s CPU      0.18s WALL (     165 calls)
     h_psi        :      4.25s CPU      4.36s WALL (     169 calls)
     g_psi        :      0.02s CPU      0.02s WALL (     137 calls)

     Called by h_psi:
     h_psi:calbec :      1.36s CPU      1.37s WALL (     169 calls)
     vloc_psi     :      1.67s CPU      1.76s WALL (     169 calls)
                                        0.00s GPU  (     169 calls)
     add_vuspsi   :      1.20s CPU      1.20s WALL (     169 calls)

     General routines
     calbec       :      2.18s CPU      2.19s WALL (     237 calls)
     fft          :      0.03s CPU      0.03s WALL (     104 calls)
     ffts         :      0.00s CPU      0.00s WALL (       7 calls)
     fftw         :      1.61s CPU      1.73s WALL (    8386 calls)


     PWSCF        :      8.69s CPU      8.88s WALL


   This run was terminated on:  14: 7:27  12Jan2026            

=------------------------------------------------------------------------------=
   JOB DONE.
=------------------------------------------------------------------------------=
