
     Program PWSCF v.7.5 starts on 12Jan2026 at 14: 8:40 

     This program is part of the open-source Quantum ESPRESSO suite
     for quantum simulation of materials; please cite
         "P. Giannozzi et al., J. Phys.:Condens. Matter 21 395502 (2009);
         "P. Giannozzi et al., J. Phys.:Condens. Matter 29 465901 (2017);
         "P. Giannozzi et al., J. Chem. Phys. 152 154105 (2020);
          URL http://www.quantum-espresso.org", 
     in publications or presentations arising from this work. More details at
     http://www.quantum-espresso.org/quote

     Serial version
     1027 MiB available memory on the printing compute node when the environment starts

     Waiting for input...
     Reading input from standard input

     Current dimensions of program PWSCF are:
     Max number of different atomic species (ntypx) = 10
     Max number of k-points (npk) =  40000
     Max angular momentum in pseudopotentials (lmaxx) =  4

     Atomic positions and unit cell read from directory:
     ./tmp/CaB3C3.save/



     G-vector sticks info
     --------------------
     sticks:   dense  smooth     PW     G-vecs:    dense   smooth      PW
     Sum         989     989    277                23583    23583    3287

     Using Slab Decomposition



     bravais-lattice index     =            1
     lattice parameter (alat)  =       8.8254  a.u.
     unit-cell volume          =     687.3905 (a.u.)^3
     number of atoms/cell      =           14
     number of atomic types    =            3
     number of electrons       =        60.00
     number of Kohn-Sham states=           36
     kinetic-energy cutoff     =      40.0000  Ry
     charge density cutoff     =     160.0000  Ry
     Exchange-correlation= PBE
                           (   1   4   3   4   0   0   0)

     celldm(1)=   8.825402  celldm(2)=   0.000000  celldm(3)=   0.000000
     celldm(4)=   0.000000  celldm(5)=   0.000000  celldm(6)=   0.000000

     crystal axes: (cart. coord. in units of alat)
               a(1) = (   1.000000   0.000000   0.000000 )  
               a(2) = (   0.000000   1.000000   0.000000 )  
               a(3) = (   0.000000   0.000000   1.000000 )  

     reciprocal axes: (cart. coord. in units 2 pi/alat)
               b(1) = (  1.000000  0.000000  0.000000 )  
               b(2) = (  0.000000  1.000000  0.000000 )  
               b(3) = (  0.000000  0.000000  1.000000 )  


     PseudoPot. # 1 for Ca read from file:
     ./PSEUDO/Ca.upf
     MD5 check sum: 70c88f1a6e4e81b49168c3af07036c03
     Pseudo is Norm-conserving + core correction, Zval = 10.0
     Generated using ONCVPSP code by D. R. Hamann
     Using radial grid of 1766 points,  6 beta functions with: 
                l(1) =   0
                l(2) =   0
                l(3) =   1
                l(4) =   1
                l(5) =   2
                l(6) =   2

     PseudoPot. # 2 for B  read from file:
     ./PSEUDO/B.upf
     MD5 check sum: 72f82fc31bc892420d0cab7e25c88ab8
     Pseudo is Norm-conserving + core correction, Zval =  3.0
     Generated using ONCVPSP code by D. R. Hamann
     Using radial grid of 1534 points,  4 beta functions with: 
                l(1) =   0
                l(2) =   0
                l(3) =   1
                l(4) =   1

     PseudoPot. # 3 for C  read from file:
     ./PSEUDO/C.upf
     MD5 check sum: 34a24e64c0a39f27c6c36b90a16ac686
     Pseudo is Norm-conserving + core correction, Zval =  4.0
     Generated using ONCVPSP code by D. R. Hamann
     Using radial grid of 1248 points,  4 beta functions with: 
                l(1) =   0
                l(2) =   0
                l(3) =   1
                l(4) =   1

     atomic species   valence    mass     pseudopotential
     K                10.00    39.09830     Ca( 1.00)
     B                 3.00    10.81100     B ( 1.00)
     C                 4.00    12.01100     C ( 1.00)

     48 Sym. Ops., with inversion, found (24 have fractional translation)



   Cartesian axes

     site n.     atom                  positions (alat units)
         1        K      tau(   1) = (   0.0000000   0.0000000   0.0000000  )
         2        K      tau(   2) = (   0.5000000   0.5000000   0.5000000  )
         3        B      tau(   3) = (   0.2500000   0.0000000   0.5000000  )
         4        B      tau(   4) = (   0.7500000   0.0000000   0.5000000  )
         5        B      tau(   5) = (   0.5000000   0.2500000   0.0000000  )
         6        B      tau(   6) = (   0.5000000   0.7500000   0.0000000  )
         7        B      tau(   7) = (   0.0000000   0.5000000   0.2500000  )
         8        B      tau(   8) = (   0.0000000   0.5000000   0.7500000  )
         9        C      tau(   9) = (   0.2500000   0.5000000   0.0000000  )
        10        C      tau(  10) = (   0.7500000   0.5000000   0.0000000  )
        11        C      tau(  11) = (   0.0000000   0.2500000   0.5000000  )
        12        C      tau(  12) = (   0.0000000   0.7500000   0.5000000  )
        13        C      tau(  13) = (   0.5000000   0.0000000   0.2500000  )
        14        C      tau(  14) = (   0.5000000   0.0000000   0.7500000  )

     number of k points=    21
                       cart. coord. in units 2pi/alat
        k(    1) = (   0.2500000   0.2500000   0.0000000), wk =   0.0952381
        k(    2) = (   0.2250000   0.2250000   0.0000000), wk =   0.0952381
        k(    3) = (   0.2000000   0.2000000   0.0000000), wk =   0.0952381
        k(    4) = (   0.1750000   0.1750000   0.0000000), wk =   0.0952381
        k(    5) = (   0.1500000   0.1500000   0.0000000), wk =   0.0952381
        k(    6) = (   0.1250000   0.1250000   0.0000000), wk =   0.0952381
        k(    7) = (   0.1000000   0.1000000   0.0000000), wk =   0.0952381
        k(    8) = (   0.0750000   0.0750000   0.0000000), wk =   0.0952381
        k(    9) = (   0.0500000   0.0500000   0.0000000), wk =   0.0952381
        k(   10) = (   0.0250000   0.0250000   0.0000000), wk =   0.0952381
        k(   11) = (   0.0000000   0.0000000   0.0000000), wk =   0.0952381
        k(   12) = (   0.0250000   0.0000000   0.0000000), wk =   0.0952381
        k(   13) = (   0.0500000   0.0000000   0.0000000), wk =   0.0952381
        k(   14) = (   0.0750000   0.0000000   0.0000000), wk =   0.0952381
        k(   15) = (   0.1000000   0.0000000   0.0000000), wk =   0.0952381
        k(   16) = (   0.1250000   0.0000000   0.0000000), wk =   0.0952381
        k(   17) = (   0.1500000   0.0000000   0.0000000), wk =   0.0952381
        k(   18) = (   0.1750000   0.0000000   0.0000000), wk =   0.0952381
        k(   19) = (   0.2000000   0.0000000   0.0000000), wk =   0.0952381
        k(   20) = (   0.2250000   0.0000000   0.0000000), wk =   0.0952381
        k(   21) = (   0.2500000   0.0000000   0.0000000), wk =   0.0952381

     Dense  grid:    23583 G-vectors     FFT dimensions: (  36,  36,  36)

     Estimated max dynamical RAM per process >      25.31 MB

     Check: negative core charge=   -0.000001

     The potential is recalculated from file :
     ./tmp/CaB3C3.save/charge-density

     Starting wfcs are   58 randomized atomic wfcs

     Band Structure Calculation
     Davidson diagonalization with overlap
     c_bands:  2 eigenvalues not converged
     c_bands:  1 eigenvalues not converged
     c_bands:  1 eigenvalues not converged
     c_bands:  1 eigenvalues not converged
     c_bands:  1 eigenvalues not converged
     c_bands:  1 eigenvalues not converged

     ethr =  1.67E-08,  avg # of iterations =101.5

     total cpu time spent up to now is       78.0 secs

     End of band structure calculation

          k = 0.2500 0.2500 0.0000 (  2929 PWs)   bands (ev):

   -36.3202 -36.3140 -16.7019 -16.6819 -16.6796 -16.6712 -16.6593 -16.6508
    -2.5418  -0.8189  -0.3158   1.5662   2.0575   3.0845   3.9480   5.4308
     5.6516   6.3221   6.7844   7.6099   7.7507   8.9323   8.9395   9.7735
    10.0560  10.0963  10.7166  11.2547  11.6612  12.8776  13.1436  13.3748
    13.5731  13.6325  13.8787  13.9603

          k = 0.2250 0.2250 0.0000 (  2937 PWs)   bands (ev):

   -36.3227 -36.3156 -16.7001 -16.6813 -16.6769 -16.6742 -16.6578 -16.6507
    -2.6611  -0.7612  -0.3147   1.7932   2.1313   3.0708   3.9643   5.1675
     5.7256   6.1373   6.7395   7.4761   7.7583   8.9384   9.1040   9.8162
     9.8897  10.0835  10.6055  11.0407  11.5544  13.0328  13.2735  13.4661
    13.7098  13.7283  14.0179  14.0275

          k = 0.2000 0.2000 0.0000 (  2935 PWs)   bands (ev):

   -36.3283 -36.3093 -16.6983 -16.6829 -16.6772 -16.6720 -16.6564 -16.6505
    -2.7697  -0.7004  -0.3172   2.0139   2.2183   3.0571   3.9846   4.9260
     5.8146   5.9461   6.6959   7.3420   7.7697   8.9196   9.2282   9.5829
    10.0097  10.1219  10.5106  10.8454  11.4478  13.1581  13.3743  13.4761
    13.8223  13.9570  13.9681  14.1131

          k = 0.1750 0.1750 0.0000 (  2947 PWs)   bands (ev):

   -36.3300 -36.3139 -16.6966 -16.6844 -16.6799 -16.6674 -16.6550 -16.6504
    -2.8677  -0.6405  -0.3240   2.2270   2.3190   3.0419   4.0090   4.7089
     5.7470   5.9181   6.6580   7.2118   7.7819   8.8515   9.1404   9.5462
    10.0892  10.1932  10.4194  10.7214  11.3360  13.2255  13.4315  13.4734
    13.8753  13.9443  14.1761  14.1932

          k = 0.1500 0.1500 0.0000 (  2941 PWs)   bands (ev):

   -36.3278 -36.3136 -16.6951 -16.6859 -16.6825 -16.6631 -16.6537 -16.6502
    -2.9523  -0.5818  -0.3331   2.4243   2.4315   3.0282   4.0358   4.5239
     5.5523   6.0356   6.6294   7.0897   7.7961   8.7281   8.9072   9.6597
    10.1190  10.3233  10.3382  10.6713  11.2374  13.2644  13.4747  13.4902
    13.7941  14.0551  14.2624  14.3256

          k = 0.1250 0.1250 0.0000 (  2933 PWs)   bands (ev):

   -36.3255 -36.3124 -16.6937 -16.6872 -16.6848 -16.6592 -16.6526 -16.6501
    -3.0235  -0.5266  -0.3429   2.5513   2.5977   3.0165   4.0606   4.3678
     5.3655   6.1633   6.6144   6.9782   7.8095   8.5591   8.6609   9.7897
    10.1304  10.2719  10.4702  10.6837  11.1525  13.2743  13.4974  13.5241
    13.6888  14.1781  14.3432  14.3913

          k = 0.1000 0.1000 0.0000 (  2929 PWs)   bands (ev):

   -36.3270 -36.3092 -16.6925 -16.6883 -16.6867 -16.6560 -16.6516 -16.6500
    -3.0841  -0.4763  -0.3532   2.6734   2.7429   3.0051   4.0789   4.2468
     5.1952   6.2988   6.6155   6.8805   7.8213   8.3638   8.4222   9.9070
    10.1358  10.2192  10.6067  10.7309  11.0744  13.2556  13.4512  13.5781
    13.6407  14.2915  14.4154  14.4508

          k = 0.0750 0.0750 0.0000 (  2939 PWs)   bands (ev):

   -36.3293 -36.3124 -16.6916 -16.6891 -16.6883 -16.6533 -16.6508 -16.6499
    -3.1321  -0.4346  -0.3622   2.7889   2.8542   2.9949   4.0872   4.1615
     5.0496   6.4335   6.6296   6.8004   7.8302   8.1689   8.2040   9.9982
    10.1318  10.1752  10.7311  10.7969  11.0105  13.2202  13.3428  13.6107
    13.6447  14.3932  14.4573  14.4933

          k = 0.0500 0.0500 0.0000 (  2943 PWs)   bands (ev):

   -36.3315 -36.3127 -16.6909 -16.6898 -16.6894 -16.6514 -16.6503 -16.6499
    -3.1652  -0.4031  -0.3702   2.8881   2.9275   2.9872   4.0863   4.1085
     4.9378   6.5576   6.6548   6.7394   7.8336   7.9999   8.0194  10.0650
    10.1263  10.1445  10.8351  10.8625  10.9644  13.1865  13.2445  13.6421
    13.6569  14.4777  14.5072  14.5253

          k = 0.0250 0.0250 0.0000 (  2945 PWs)   bands (ev):

   -36.3327 -36.3129 -16.6905 -16.6902 -16.6901 -16.6502 -16.6499 -16.6498
    -3.1852  -0.3835  -0.3751   2.9563   2.9685   2.9829   4.0792   4.0829
     4.8683   6.6525   6.6785   6.7019   7.8382   7.8821   7.8886  10.1061
    10.1216  10.1261  10.9021  10.9093  10.9353  13.1623  13.1783  13.6619
    13.6658  14.5324  14.5401  14.5450

          k = 0.0000 0.0000 0.0000 (  2945 PWs)   bands (ev):

   -36.3328 -36.3130 -16.6903 -16.6903 -16.6903 -16.6498 -16.6498 -16.6498
    -3.1920  -0.3768  -0.3768   2.9814   2.9814   2.9814   4.0755   4.0755
     4.8448   6.6892   6.6892   6.6892   7.8399   7.8399   7.8399  10.1200
    10.1200  10.1200  10.9255  10.9255  10.9255  13.1542  13.1542  13.6688
    13.6688  14.5516  14.5516  14.5516

          k = 0.0250 0.0000 0.0000 (  2945 PWs)   bands (ev):

   -36.3328 -36.3129 -16.6903 -16.6902 -16.6902 -16.6500 -16.6499 -16.6499
    -3.1886  -0.3823  -0.3738   2.9618   2.9821   2.9821   4.0769   4.0794
     4.8568   6.6704   6.6704   6.7089   7.8427   7.8611   7.8611  10.1152
    10.1208  10.1208  10.9007  10.9304  10.9304  13.1543  13.1702  13.6644
    13.6683  14.5419  14.5419  14.5521

          k = 0.0500 0.0000 0.0000 (  2945 PWs)   bands (ev):

   -36.3326 -36.3128 -16.6904 -16.6900 -16.6900 -16.6504 -16.6500 -16.6500
    -3.1784  -0.3987  -0.3649   2.9065   2.9844   2.9844   4.0809   4.0867
     4.8942   6.6180   6.6180   6.7669   7.8508   7.9206   7.9206  10.1011
    10.1234  10.1234  10.8293  10.9451  10.9451  13.1545  13.2155  13.6513
    13.6668  14.5135  14.5135  14.5539

          k = 0.0750 0.0000 0.0000 (  2941 PWs)   bands (ev):

   -36.3305 -36.3127 -16.6905 -16.6897 -16.6897 -16.6511 -16.6503 -16.6503
    -3.1621  -0.4257  -0.3499   2.8242   2.9884   2.9884   4.0893   4.0895
     4.9606   6.5426   6.5426   6.8602   7.8644   8.0109   8.0109  10.0779
    10.1278  10.1278  10.7141  10.9692  10.9692  13.1565  13.2836  13.6311
    13.6644  14.4677  14.4677  14.5567

          k = 0.1000 0.0000 0.0000 (  2933 PWs)   bands (ev):

   -36.3264 -36.3125 -16.6906 -16.6893 -16.6893 -16.6521 -16.6507 -16.6507
    -3.1386  -0.4635  -0.3292   2.7238   2.9936   2.9936   4.0824   4.0997
     5.0560   6.4509   6.4509   6.9849   7.8847   8.1211   8.1211  10.0457
    10.1337  10.1337  10.5725  11.0039  11.0039  13.1633  13.3642  13.6054
    13.6626  14.4067  14.4067  14.5608

          k = 0.1250 0.0000 0.0000 (  2926 PWs)   bands (ev):

   -36.3262 -36.3088 -16.6908 -16.6887 -16.6887 -16.6534 -16.6513 -16.6513
    -3.1079  -0.5118  -0.3025   2.6094   3.0004   3.0004   4.0663   4.1105
     5.1764   6.3502   6.3502   7.1349   7.9089   8.2413   8.2413  10.0058
    10.1472  10.1472  10.4065  11.0481  11.0481  13.1653  13.4466  13.5908
    13.6629  14.3352  14.3352  14.5662

          k = 0.1500 0.0000 0.0000 (  2938 PWs)   bands (ev):

   -36.3279 -36.3126 -16.6909 -16.6880 -16.6880 -16.6548 -16.6519 -16.6519
    -3.0718  -0.5706  -0.2718   2.4865   3.0075   3.0075   4.0431   4.1229
     5.3157   6.2454   6.2454   7.3067   7.9384   8.3679   8.3679   9.9570
    10.1525  10.1525  10.2237  11.0994  11.0994  13.1521  13.5172  13.5391
    13.6697  14.2377  14.2377  14.5710

          k = 0.1750 0.0000 0.0000 (  2938 PWs)   bands (ev):

   -36.3295 -36.3106 -16.6910 -16.6872 -16.6872 -16.6565 -16.6526 -16.6526
    -3.0286  -0.6383  -0.2334   2.3580   3.0162   3.0162   4.0189   4.1363
     5.4670   6.1406   6.1406   7.4979   7.9731   8.4966   8.4966   9.9008
    10.0308  10.1589  10.1589  11.1637  11.1637  13.1463  13.5019  13.5539
    13.6807  14.1567  14.1567  14.5912

          k = 0.2000 0.0000 0.0000 (  2942 PWs)   bands (ev):

   -36.3311 -36.3109 -16.6911 -16.6862 -16.6862 -16.6584 -16.6535 -16.6535
    -2.9791  -0.7141  -0.1903   2.2291   3.0257   3.0257   3.9979   4.1483
     5.6305   6.0375   6.0375   7.7052   8.0126   8.6215   8.6215   9.8290
     9.8345  10.1626  10.1626  11.2376  11.2376  13.1386  13.4713  13.5664
    13.7178  14.0610  14.0610  14.3755

          k = 0.2250 0.0000 0.0000 (  2934 PWs)   bands (ev):

   -36.3267 -36.3110 -16.6912 -16.6852 -16.6852 -16.6604 -16.6544 -16.6544
    -2.9236  -0.7982  -0.1406   2.0984   3.0368   3.0368   3.9835   4.1628
     5.7991   5.9385   5.9385   7.9276   8.0627   8.7512   8.7512   9.6264
     9.7664  10.1719  10.1719  11.3220  11.3220  13.1297  13.4481  13.5623
    13.7689  13.9543  13.9543  14.1410

          k = 0.2500 0.0000 0.0000 (  2922 PWs)   bands (ev):

   -36.3222 -36.3094 -16.6911 -16.6841 -16.6841 -16.6626 -16.6554 -16.6554
    -2.8601  -0.8887  -0.0856   1.9668   3.0477   3.0477   3.9747   4.1770
     5.8445   5.8445   5.9707   8.1129   8.1614   8.8749   8.8749   9.4266
     9.6929  10.1792  10.1792  11.4239  11.4239  13.1101  13.4221  13.5473
    13.7974  13.8572  13.8572  13.9123

     Writing all to output data dir ./tmp/CaB3C3.save/ :
     XML data file, pseudopotentials, collected wavefunctions

     init_run     :      0.26s CPU      0.28s WALL (       1 calls)
     electrons    :     75.91s CPU     77.60s WALL (       1 calls)

     Called by init_run:
     wfcinit      :      0.00s CPU      0.00s WALL (       1 calls)
     potinit      :      0.02s CPU      0.03s WALL (       1 calls)
     hinit0       :      0.22s CPU      0.23s WALL (       1 calls)

     Called by electrons:
     c_bands      :     75.91s CPU     77.60s WALL (       1 calls)
     v_of_rho     :      0.02s CPU      0.03s WALL (       1 calls)

     Called by c_bands:
     init_us_2    :      0.02s CPU      0.04s WALL (      21 calls)
     cegterg      :     73.81s CPU     75.37s WALL (     110 calls)

     Called by *egterg:
     cdiaghg      :      2.28s CPU      2.33s WALL (    2152 calls)
     h_psi        :     42.47s CPU     43.77s WALL (    2262 calls)
     g_psi        :      0.27s CPU      0.29s WALL (    2131 calls)

     Called by h_psi:
     h_psi:calbec :     13.24s CPU     13.32s WALL (    2262 calls)
     vloc_psi     :     16.99s CPU     18.05s WALL (    2262 calls)
                                        0.00s GPU  (    2262 calls)
     add_vuspsi   :     12.06s CPU     12.12s WALL (    2262 calls)

     General routines
     calbec       :     13.21s CPU     13.31s WALL (    2262 calls)
     fft          :      0.01s CPU      0.01s WALL (      11 calls)
     fftw         :     14.51s CPU     15.87s WALL (   77420 calls)
     davcio       :      0.00s CPU      0.03s WALL (      42 calls)


     PWSCF        :   1m16.29s CPU   1m18.03s WALL


   This run was terminated on:  14: 9:58  12Jan2026            

=------------------------------------------------------------------------------=
   JOB DONE.
=------------------------------------------------------------------------------=
