
     Program PWSCF v.7.5 starts on  8Jan2026 at  9:34:22 

     This program is part of the open-source Quantum ESPRESSO suite
     for quantum simulation of materials; please cite
         "P. Giannozzi et al., J. Phys.:Condens. Matter 21 395502 (2009);
         "P. Giannozzi et al., J. Phys.:Condens. Matter 29 465901 (2017);
         "P. Giannozzi et al., J. Chem. Phys. 152 154105 (2020);
          URL http://www.quantum-espresso.org", 
     in publications or presentations arising from this work. More details at
     http://www.quantum-espresso.org/quote

     Serial version
     475 MiB available memory on the printing compute node when the environment starts

     Waiting for input...
     Reading input from standard input

     Current dimensions of program PWSCF are:
     Max number of different atomic species (ntypx) = 10
     Max number of k-points (npk) =  40000
     Max angular momentum in pseudopotentials (lmaxx) =  4
     Message from routine iosys:
     BEWARE:  force calculation with tetrahedra (not recommanded)
     Message from routine iosys:
     BEWARE: stress calculation with tetrahedra (not recommanded)
     [opt_tetra]  Optimized tetrahedron method is used.


     G-vector sticks info
     --------------------
     sticks:   dense  smooth     PW     G-vecs:    dense   smooth      PW
     Sum         559     559    163                 8609     8609    1459

     Using Slab Decomposition



     bravais-lattice index     =            2
     lattice parameter (alat)  =      10.0000  a.u.
     unit-cell volume          =     250.0000 (a.u.)^3
     number of atoms/cell      =            2
     number of atomic types    =            2
     number of electrons       =        36.00
     number of Kohn-Sham states=           22
     kinetic-energy cutoff     =      40.0000  Ry
     charge density cutoff     =     160.0000  Ry
     scf convergence threshold =      1.0E-05
     mixing beta               =       0.7000
     number of iterations used =            8  plain     mixing
     Exchange-correlation= PBE
                           (   1   4   3   4   0   0   0)

     celldm(1)=  10.000000  celldm(2)=   0.000000  celldm(3)=   0.000000
     celldm(4)=   0.000000  celldm(5)=   0.000000  celldm(6)=   0.000000

     crystal axes: (cart. coord. in units of alat)
               a(1) = (  -0.500000   0.000000   0.500000 )  
               a(2) = (   0.000000   0.500000   0.500000 )  
               a(3) = (  -0.500000   0.500000   0.000000 )  

     reciprocal axes: (cart. coord. in units 2 pi/alat)
               b(1) = ( -1.000000 -1.000000  1.000000 )  
               b(2) = (  1.000000  1.000000  1.000000 )  
               b(3) = ( -1.000000  1.000000 -1.000000 )  


     PseudoPot. # 1 for Cd read from file:
     ./PSEUDO/Cd_ONCV_PBE-1.2.upf
     MD5 check sum: 810a600e5a5ac944c8c8f48f0d721646
     Pseudo is Norm-conserving, Zval = 20.0
     Generated using ONCVPSP code by D. R. Hamann
     Using radial grid of  602 points,  6 beta functions with: 
                l(1) =   0
                l(2) =   0
                l(3) =   1
                l(4) =   1
                l(5) =   2
                l(6) =   2

     PseudoPot. # 2 for Te read from file:
     ./PSEUDO/Te_ONCV_PBE-1.2.upf
     MD5 check sum: dd4de4dac1e38587f63aaf3700bb29d3
     Pseudo is Norm-conserving, Zval = 16.0
     Generated using ONCVPSP code by D. R. Hamann
     Using radial grid of  602 points,  6 beta functions with: 
                l(1) =   0
                l(2) =   0
                l(3) =   1
                l(4) =   1
                l(5) =   2
                l(6) =   2

     atomic species   valence    mass     pseudopotential
     Cd               20.00   112.40000     Cd( 1.00)
     Te               16.00   127.60000     Te( 1.00)

     24 Sym. Ops. (no inversion) found



   Cartesian axes

     site n.     atom                  positions (alat units)
         1        Cd     tau(   1) = (   0.0000000   0.0000000   0.0000000  )
         2        Te     tau(   2) = (  -0.2500000   0.2500000   0.2500000  )

     number of k points=     8 (tetrahedron method)
                       cart. coord. in units 2pi/alat
        k(    1) = (   0.0000000   0.0000000   0.0000000), wk =   0.0312500
        k(    2) = (  -0.2500000   0.2500000  -0.2500000), wk =   0.2500000
        k(    3) = (   0.5000000  -0.5000000   0.5000000), wk =   0.1250000
        k(    4) = (   0.0000000   0.5000000   0.0000000), wk =   0.1875000
        k(    5) = (   0.7500000  -0.2500000   0.7500000), wk =   0.7500000
        k(    6) = (   0.5000000   0.0000000   0.5000000), wk =   0.3750000
        k(    7) = (   0.0000000  -1.0000000   0.0000000), wk =   0.0937500
        k(    8) = (  -0.5000000  -1.0000000   0.0000000), wk =   0.1875000

     Dense  grid:     8609 G-vectors     FFT dimensions: (  30,  30,  30)

     Estimated max dynamical RAM per process >      13.08 MB

     Initial potential from superposition of free atoms

     starting charge      35.9267, renormalised to      36.0000
     Starting wfcs are random

     total cpu time spent up to now is        0.3 secs

     Self-consistent Calculation

     iteration #  1     ecut=    40.00 Ry     beta= 0.70
     Davidson diagonalization with overlap
     ethr =  1.00E-02,  avg # of iterations =  9.1

     Threshold (ethr) on eigenvalues was too large:
     Diagonalizing with lowered threshold

     Davidson diagonalization with overlap
     ethr =  2.55E-04,  avg # of iterations =  3.4

     total cpu time spent up to now is        1.4 secs

     total energy              =    -485.16019981 Ry
     estimated scf accuracy    <       0.08068214 Ry

     iteration #  2     ecut=    40.00 Ry     beta= 0.70
     Davidson diagonalization with overlap
     ethr =  2.24E-04,  avg # of iterations =  2.0

     total cpu time spent up to now is        1.7 secs

     total energy              =    -485.18294928 Ry
     estimated scf accuracy    <       0.01821536 Ry

     iteration #  3     ecut=    40.00 Ry     beta= 0.70
     Davidson diagonalization with overlap
     ethr =  5.06E-05,  avg # of iterations =  2.0

     total cpu time spent up to now is        2.0 secs

     total energy              =    -485.18706068 Ry
     estimated scf accuracy    <       0.00023142 Ry

     iteration #  4     ecut=    40.00 Ry     beta= 0.70
     Davidson diagonalization with overlap
     ethr =  6.43E-07,  avg # of iterations =  2.2

     total cpu time spent up to now is        2.3 secs

     total energy              =    -485.18708634 Ry
     estimated scf accuracy    <       0.00001823 Ry

     iteration #  5     ecut=    40.00 Ry     beta= 0.70
     Davidson diagonalization with overlap
     ethr =  5.06E-08,  avg # of iterations =  2.0

     total cpu time spent up to now is        2.6 secs

     End of self-consistent calculation

          k = 0.0000 0.0000 0.0000 (  1067 PWs)   bands (ev):

   -83.5132 -44.7745 -44.7745 -44.7745 -17.0411 -17.0411 -17.0411 -16.9523
   -16.9523   5.0009   9.0376   9.0376   9.0376  10.0716  10.0716  22.0216
    22.0216  22.0216  24.3123  25.4516  25.4516  25.4517

          k =-0.2500 0.2500-0.2500 (  1074 PWs)   bands (ev):

   -83.5131 -44.7756 -44.7745 -44.7745 -17.0465 -17.0405 -17.0405 -16.9526
   -16.9526   5.5901   9.1802   9.1802   9.3383  10.0529  10.0529  16.8656
    20.6621  20.6621  24.3524  26.5351  26.5351  27.8646

          k = 0.5000-0.5000 0.5000 (  1068 PWs)   bands (ev):

   -83.5130 -44.7768 -44.7746 -44.7746 -17.0515 -17.0398 -17.0398 -16.9499
   -16.9499   6.1410   9.2786   9.2786  10.0989  10.0989  11.2104  12.2962
    19.7421  19.7421  24.0083  26.2290  26.2290  27.8805

          k = 0.0000 0.5000 0.0000 (  1062 PWs)   bands (ev):

   -83.5131 -44.7758 -44.7747 -44.7747 -17.0476 -17.0400 -17.0400 -16.9545
   -16.9457   5.7837   9.1383   9.3520   9.3520  10.0357  10.1190  18.0774
    18.7676  18.7676  23.2891  24.8647  29.3865  29.3865

          k = 0.7500-0.2500 0.7500 (  1076 PWs)   bands (ev):

   -83.5130 -44.7765 -44.7752 -44.7747 -17.0512 -17.0436 -17.0411 -16.9520
   -16.9472   6.3119   9.2976   9.5159   9.7699  10.1134  11.1530  13.8852
    16.8045  18.0813  23.6016  26.7306  28.9937  29.0800

          k = 0.5000 0.0000 0.5000 (  1065 PWs)   bands (ev):

   -83.5130 -44.7761 -44.7753 -44.7746 -17.0471 -17.0423 -17.0414 -16.9498
   -16.9481   6.1487   9.3067   9.3677   9.8497   9.9969  10.5197  15.1638
    16.3263  19.6460  24.6330  27.5969  27.6480  28.5514

          k = 0.0000-1.0000 0.0000 (  1090 PWs)   bands (ev):

   -83.5130 -44.7771 -44.7749 -44.7749 -17.0573 -17.0425 -17.0425 -16.9546
   -16.9441   6.4661   9.2251   9.7647   9.7647  10.1671  11.6330  13.6459
    16.8239  16.8239  22.5798  23.2398  33.4918  34.3262

          k =-0.5000-1.0000 0.0000 (  1084 PWs)   bands (ev):

   -83.5130 -44.7761 -44.7758 -44.7749 -17.0504 -17.0478 -17.0415 -16.9516
   -16.9476   6.4593   9.3569   9.5776   9.9534   9.9583  12.2797  13.6163
    15.6269  16.0518  25.9495  27.3850  27.6876  27.8622

     the Fermi energy is    22.5007 ev

!    total energy              =    -485.18709022 Ry
     estimated scf accuracy    <       0.00000130 Ry

     The total energy is the sum of the following terms:
     one-electron contribution =    -204.61170036 Ry
     hartree contribution      =     118.61955996 Ry
     xc contribution           =     -47.10409566 Ry
     ewald contribution        =    -352.09085417 Ry

     convergence has been achieved in   5 iterations

     Forces acting on atoms (cartesian axes, Ry/au):

     atom    1 type  1   force =     0.00000000    0.00000000    0.00000000
     atom    2 type  2   force =     0.00000000   -0.00000000    0.00000000

     Total force =     0.000000     Total SCF correction =     0.000000


     Computing stress (Cartesian axis) and pressure

          total   stress  (Ry/bohr**3)                   (kbar)     P=     1150.45
   0.00782063  -0.00000000  -0.00000000         1150.45       -0.00       -0.00
  -0.00000000   0.00782063   0.00000000           -0.00     1150.45        0.00
  -0.00000000   0.00000000   0.00782063           -0.00        0.00     1150.45


     Writing all to output data dir ./tmp/CdTe.save/ :
     XML data file, charge density, pseudopotentials, collected wavefunctions

     init_run     :      0.20s CPU      0.23s WALL (       1 calls)
     electrons    :      2.21s CPU      2.31s WALL (       1 calls)
     forces       :      0.03s CPU      0.03s WALL (       1 calls)
     stress       :      0.11s CPU      0.12s WALL (       1 calls)

     Called by init_run:
     wfcinit      :      0.12s CPU      0.13s WALL (       1 calls)
     potinit      :      0.03s CPU      0.04s WALL (       1 calls)
     hinit0       :      0.04s CPU      0.05s WALL (       1 calls)

     Called by electrons:
     c_bands      :      1.89s CPU      1.98s WALL (       6 calls)
     sum_band     :      0.28s CPU      0.29s WALL (       6 calls)
     v_of_rho     :      0.04s CPU      0.05s WALL (       6 calls)
     mix_rho      :      0.00s CPU      0.00s WALL (       6 calls)

     Called by c_bands:
     init_us_2    :      0.02s CPU      0.03s WALL (     120 calls)
     cegterg      :      1.86s CPU      1.94s WALL (      48 calls)

     Called by *egterg:
     cdiaghg      :      0.07s CPU      0.08s WALL (     206 calls)
     h_psi        :      1.35s CPU      1.43s WALL (     222 calls)
     g_psi        :      0.01s CPU      0.01s WALL (     166 calls)

     Called by h_psi:
     h_psi:calbec :      0.12s CPU      0.13s WALL (     222 calls)
     vloc_psi     :      1.10s CPU      1.17s WALL (     222 calls)
                                        0.00s GPU  (     222 calls)
     add_vuspsi   :      0.12s CPU      0.12s WALL (     222 calls)

     General routines
     calbec       :      0.21s CPU      0.22s WALL (     358 calls)
     fft          :      0.01s CPU      0.02s WALL (      68 calls)
     ffts         :      0.00s CPU      0.00s WALL (       6 calls)
     fftw         :      1.09s CPU      1.19s WALL (    8344 calls)


     PWSCF        :      2.57s CPU      2.71s WALL


   This run was terminated on:   9:34:25   8Jan2026            

=------------------------------------------------------------------------------=
   JOB DONE.
=------------------------------------------------------------------------------=
