
     Program PWSCF v.7.5 starts on 21Dec2025 at 23:36: 3 

     This program is part of the open-source Quantum ESPRESSO suite
     for quantum simulation of materials; please cite
         "P. Giannozzi et al., J. Phys.:Condens. Matter 21 395502 (2009);
         "P. Giannozzi et al., J. Phys.:Condens. Matter 29 465901 (2017);
         "P. Giannozzi et al., J. Chem. Phys. 152 154105 (2020);
          URL http://www.quantum-espresso.org", 
     in publications or presentations arising from this work. More details at
     http://www.quantum-espresso.org/quote

     Serial version
     2288 MiB available memory on the printing compute node when the environment starts

     Waiting for input...
     Reading input from standard input

     Current dimensions of program PWSCF are:
     Max number of different atomic species (ntypx) = 10
     Max number of k-points (npk) =  40000
     Max angular momentum in pseudopotentials (lmaxx) =  4


     G-vector sticks info
     --------------------
     sticks:   dense  smooth     PW     G-vecs:    dense   smooth      PW
     Sum        1483    1483    421                68631    68631   10345

     Using Slab Decomposition



     bravais-lattice index     =            4
     lattice parameter (alat)  =      10.3404  a.u.
     unit-cell volume          =    1436.2649 (a.u.)^3
     number of atoms/cell      =            4
     number of atomic types    =            1
     number of electrons       =        16.00
     number of Kohn-Sham states=           12
     kinetic-energy cutoff     =      50.0000  Ry
     charge density cutoff     =     200.0000  Ry
     scf convergence threshold =      1.0E-06
     mixing beta               =       0.7000
     number of iterations used =            8  plain     mixing
     energy convergence thresh.=      1.0E-04
     force convergence thresh. =      1.0E-03
     press convergence thresh. =      5.0E-01
     Exchange-correlation= PBE
                           (   1   4   3   4   0   0   0)
     nstep                     =           50


     celldm(1)=  10.340405  celldm(2)=   0.000000  celldm(3)=   1.500000
     celldm(4)=   0.000000  celldm(5)=   0.000000  celldm(6)=   0.000000

     crystal axes: (cart. coord. in units of alat)
               a(1) = (   1.000000   0.000000   0.000000 )  
               a(2) = (  -0.500000   0.866025   0.000000 )  
               a(3) = (   0.000000   0.000000   1.500000 )  

     reciprocal axes: (cart. coord. in units 2 pi/alat)
               b(1) = (  1.000000  0.577350 -0.000000 )  
               b(2) = (  0.000000  1.154701  0.000000 )  
               b(3) = (  0.000000 -0.000000  0.666667 )  


     PseudoPot. # 1 for Si read from file:
     ./PSEUDO/Si_ONCV_PBE_sr.upf
     MD5 check sum: e543d271109d17c80368dfa7c482276d
     Pseudo is Norm-conserving + core correction, Zval =  4.0
     Generated using ONCVPSP code by D. R. Hamann
     Using radial grid of 1510 points,  6 beta functions with: 
                l(1) =   0
                l(2) =   0
                l(3) =   1
                l(4) =   1
                l(5) =   2
                l(6) =   2

     atomic species   valence    mass     pseudopotential
     Si                4.00    28.08550     Si( 1.00)

     24 Sym. Ops., with inversion, found (12 have fractional translation)



   Cartesian axes

     site n.     atom                  positions (alat units)
         1        Si     tau(   1) = (   0.0000000   0.0000000   0.0000000  )
         2        Si     tau(   2) = (  -0.0000005   0.5773506   0.3750000  )
         3        Si     tau(   3) = (   0.0000000   0.0000000   0.7500000  )
         4        Si     tau(   4) = (   0.5000005   0.2886748   1.1250000  )

     number of k points=    28  Marzari-Vanderbilt smearing, width (Ry)=  0.0200
                       cart. coord. in units 2pi/alat
        k(    1) = (   0.0000000   0.0000000   0.0000000), wk =   0.0092593
        k(    2) = (   0.0000000   0.0000000   0.1111111), wk =   0.0185185
        k(    3) = (   0.0000000   0.0000000   0.2222222), wk =   0.0185185
        k(    4) = (   0.0000000   0.0000000  -0.3333333), wk =   0.0092593
        k(    5) = (   0.0000000   0.1924501   0.0000000), wk =   0.0555556
        k(    6) = (   0.0000000   0.1924501   0.1111111), wk =   0.1111111
        k(    7) = (   0.0000000   0.1924501   0.2222222), wk =   0.1111111
        k(    8) = (   0.0000000   0.1924501  -0.3333333), wk =   0.0555556
        k(    9) = (   0.0000000   0.3849002   0.0000000), wk =   0.0555556
        k(   10) = (   0.0000000   0.3849002   0.1111111), wk =   0.1111111
        k(   11) = (   0.0000000   0.3849002   0.2222222), wk =   0.1111111
        k(   12) = (   0.0000000   0.3849002  -0.3333333), wk =   0.0555556
        k(   13) = (   0.0000000  -0.5773503   0.0000000), wk =   0.0277778
        k(   14) = (   0.0000000  -0.5773503   0.1111111), wk =   0.0555556
        k(   15) = (   0.0000000  -0.5773503   0.2222222), wk =   0.0555556
        k(   16) = (   0.0000000  -0.5773503  -0.3333333), wk =   0.0277778
        k(   17) = (   0.1666667   0.2886751   0.0000000), wk =   0.0555556
        k(   18) = (   0.1666667   0.2886751   0.1111111), wk =   0.1111111
        k(   19) = (   0.1666667   0.2886751   0.2222222), wk =   0.1111111
        k(   20) = (   0.1666667   0.2886751  -0.3333333), wk =   0.0555556
        k(   21) = (   0.1666667   0.4811252   0.0000000), wk =   0.1111111
        k(   22) = (   0.1666667   0.4811252   0.1111111), wk =   0.2222222
        k(   23) = (   0.1666667   0.4811252   0.2222222), wk =   0.2222222
        k(   24) = (   0.1666667   0.4811252  -0.3333333), wk =   0.1111111
        k(   25) = (   0.3333333   0.5773503   0.0000000), wk =   0.0185185
        k(   26) = (   0.3333333   0.5773503   0.1111111), wk =   0.0370370
        k(   27) = (   0.3333333   0.5773503   0.2222222), wk =   0.0370370
        k(   28) = (   0.3333333   0.5773503  -0.3333333), wk =   0.0185185

     Dense  grid:    68631 G-vectors     FFT dimensions: (  48,  48,  72)

     Estimated max dynamical RAM per process >     103.47 MB

     Initial potential from superposition of free atoms

     starting charge      15.9975, renormalised to      16.0000
     Starting wfcs are   16 randomized atomic wfcs

     total cpu time spent up to now is        3.5 secs

     Self-consistent Calculation

     iteration #  1     ecut=    50.00 Ry     beta= 0.70
     Davidson diagonalization with overlap
     ethr =  1.00E-02,  avg # of iterations =  1.0

     Threshold (ethr) on eigenvalues was too large:
     Diagonalizing with lowered threshold

     Davidson diagonalization with overlap
     ethr =  1.37E-04,  avg # of iterations =  4.1

     total cpu time spent up to now is       11.9 secs

     total energy              =     -32.97705472 Ry
     estimated scf accuracy    <       0.02244975 Ry

     iteration #  2     ecut=    50.00 Ry     beta= 0.70
     Davidson diagonalization with overlap
     ethr =  1.40E-04,  avg # of iterations =  2.8

     total cpu time spent up to now is       16.1 secs

     total energy              =     -32.97831692 Ry
     estimated scf accuracy    <       0.00860488 Ry

     iteration #  3     ecut=    50.00 Ry     beta= 0.70
     Davidson diagonalization with overlap
     ethr =  5.38E-05,  avg # of iterations =  3.3

     total cpu time spent up to now is       20.4 secs

     total energy              =     -32.98087552 Ry
     estimated scf accuracy    <       0.00171123 Ry

     iteration #  4     ecut=    50.00 Ry     beta= 0.70
     Davidson diagonalization with overlap
     ethr =  1.07E-05,  avg # of iterations =  1.9

     total cpu time spent up to now is       24.0 secs

     total energy              =     -32.98105035 Ry
     estimated scf accuracy    <       0.00013919 Ry

     iteration #  5     ecut=    50.00 Ry     beta= 0.70
     Davidson diagonalization with overlap
     ethr =  8.70E-07,  avg # of iterations =  5.2

     total cpu time spent up to now is       29.4 secs

     total energy              =     -32.98111623 Ry
     estimated scf accuracy    <       0.00013000 Ry

     iteration #  6     ecut=    50.00 Ry     beta= 0.70
     Davidson diagonalization with overlap
     ethr =  8.12E-07,  avg # of iterations =  1.7

     total cpu time spent up to now is       33.1 secs

     total energy              =     -32.98112230 Ry
     estimated scf accuracy    <       0.00001387 Ry

     iteration #  7     ecut=    50.00 Ry     beta= 0.70
     Davidson diagonalization with overlap
     ethr =  8.67E-08,  avg # of iterations =  5.2

     total cpu time spent up to now is       38.5 secs

     total energy              =     -32.98113173 Ry
     estimated scf accuracy    <       0.00001556 Ry

     iteration #  8     ecut=    50.00 Ry     beta= 0.70
     Davidson diagonalization with overlap
     ethr =  8.67E-08,  avg # of iterations =  1.0

     total cpu time spent up to now is       42.0 secs

     total energy              =     -32.98112911 Ry
     estimated scf accuracy    <       0.00000658 Ry

     iteration #  9     ecut=    50.00 Ry     beta= 0.70
     Davidson diagonalization with overlap
     ethr =  4.11E-08,  avg # of iterations =  4.0

     total cpu time spent up to now is       46.7 secs

     total energy              =     -32.98113150 Ry
     estimated scf accuracy    <       0.00000226 Ry

     iteration # 10     ecut=    50.00 Ry     beta= 0.70
     Davidson diagonalization with overlap
     ethr =  1.41E-08,  avg # of iterations =  1.1

     total cpu time spent up to now is       50.1 secs

     End of self-consistent calculation

          k = 0.0000 0.0000 0.0000 (  8597 PWs)   bands (ev):

    -7.7953  -6.6711  -6.4374  -5.4478  -0.5769  -0.5769  -0.4332   0.1087
     0.1698   0.1698   0.2324   0.6859

          k = 0.0000 0.0000 0.1111 (  8603 PWs)   bands (ev):

    -7.7552  -6.9016  -6.2112  -5.4746  -0.5435  -0.5435  -0.4489   0.0745
     0.0745   0.1441   0.2536   0.7826

          k = 0.0000 0.0000 0.2222 (  8573 PWs)   bands (ev):

    -7.6369  -7.1943  -5.9339  -5.5595  -0.4465  -0.4465  -0.4166  -0.1103
    -0.1103  -0.0638   0.6022   0.9801

          k = 0.0000 0.0000-0.3333 (  8650 PWs)   bands (ev):

    -7.4463  -7.4463  -5.7115  -5.7115  -0.2958  -0.2958  -0.2958  -0.2958
    -0.2793  -0.2793   1.0676   1.0676

          k = 0.0000 0.1925 0.0000 (  8580 PWs)   bands (ev):

    -7.6858  -6.6468  -6.3978  -5.6351  -1.0716  -0.7973  -0.5090  -0.4304
     0.2506   0.2733   0.6168   0.7555

          k = 0.0000 0.1925 0.1111 (  8572 PWs)   bands (ev):

    -7.6473  -6.8446  -6.2148  -5.6523  -1.0454  -0.7574  -0.5764  -0.3052
     0.0771   0.2367   0.6178   0.8167

          k = 0.0000 0.1925 0.2222 (  8615 PWs)   bands (ev):

    -7.5337  -7.1143  -5.9889  -5.7091  -0.9594  -0.6745  -0.6397  -0.2035
    -0.1143   0.2720   0.4060   1.0193

          k = 0.0000 0.1925-0.3333 (  8572 PWs)   bands (ev):

    -7.3518  -7.3518  -5.8179  -5.8179  -0.8192  -0.8192  -0.4508  -0.4508
     0.0886   0.0886   0.6281   0.6281

          k = 0.0000 0.3849 0.0000 (  8552 PWs)   bands (ev):

    -7.3827  -6.6256  -6.3142  -6.0526  -1.6473  -1.1198  -1.0846  -0.1723
     0.2811   0.3001   0.4903   0.5493

          k = 0.0000 0.3849 0.1111 (  8578 PWs)   bands (ev):

    -7.3491  -6.7266  -6.2504  -6.0546  -1.5661  -1.0859  -1.0395  -0.3182
    -0.0297   0.2674   0.6135   0.8450

          k = 0.0000 0.3849 0.2222 (  8581 PWs)   bands (ev):

    -7.2515  -6.9135  -6.1607  -6.0662  -1.3579  -1.0239  -0.9053  -0.4953
    -0.3896  -0.0035   0.8467   1.2711

          k = 0.0000 0.3849-0.3333 (  8594 PWs)   bands (ev):

    -7.1000  -7.1000  -6.0989  -6.0989  -1.1245  -1.1245  -0.6862  -0.6862
    -0.3643  -0.3643   1.1628   1.1628

          k = 0.0000-0.5774 0.0000 (  8532 PWs)   bands (ev):

    -7.0825  -6.7409  -6.2779  -6.2698  -1.8551  -1.3517  -1.1951   0.0737
     0.1946   0.2806   0.2925   0.4321

          k = 0.0000-0.5774 0.1111 (  8588 PWs)   bands (ev):

    -7.0562  -6.7534  -6.2896  -6.2876  -1.7413  -1.3237  -1.1485  -0.2395
    -0.0917   0.1015   0.6670   0.8396

          k = 0.0000-0.5774 0.2222 (  8592 PWs)   bands (ev):

    -6.9839  -6.8004  -6.3224  -6.3104  -1.4509  -1.2487  -1.0098  -0.5330
    -0.4726  -0.2072   1.1530   1.3162

          k = 0.0000-0.5774-0.3333 (  8596 PWs)   bands (ev):

    -6.8867  -6.8867  -6.3293  -6.3293  -1.2133  -1.2133  -0.7824  -0.7824
    -0.5564  -0.5564   1.5306   1.5307

          k = 0.1667 0.2887 0.0000 (  8591 PWs)   bands (ev):

    -7.4775  -6.6163  -6.3358  -5.9459  -1.5344  -0.9290  -0.7928  -0.6802
    -0.0597   0.3235   0.8312   1.2457

          k = 0.1667 0.2887 0.1111 (  8578 PWs)   bands (ev):

    -7.4421  -6.7511  -6.2328  -5.9504  -1.4453  -1.0488  -0.7733  -0.5692
    -0.0608   0.2069   0.9076   1.0936

          k = 0.1667 0.2887 0.2222 (  8575 PWs)   bands (ev):

    -7.3386  -6.9700  -6.1011  -5.9687  -1.2013  -1.0993  -0.9433  -0.3746
    -0.2064   0.2884   0.7177   0.8237

          k = 0.1667 0.2887-0.3333 (  8558 PWs)   bands (ev):

    -7.1758  -7.1758  -6.0139  -6.0139  -1.0769  -1.0769  -0.8009  -0.8009
     0.2055   0.2055   0.5804   0.5804

          k = 0.1667 0.4811 0.0000 (  8589 PWs)   bands (ev):

    -7.1198  -6.6467  -6.3370  -6.2703  -1.7731  -1.2134  -1.1612  -0.6792
    -0.3830   0.3636   1.1374   1.1674

          k = 0.1667 0.4811 0.1111 (  8580 PWs)   bands (ev):

    -7.0913  -6.6786  -6.3406  -6.2759  -1.6606  -1.3699  -0.9763  -0.8457
    -0.0864   0.2124   0.7561   1.4223

          k = 0.1667 0.4811 0.2222 (  8559 PWs)   bands (ev):

    -7.0106  -6.7701  -6.3369  -6.2934  -1.4522  -1.4004  -1.1072  -0.5651
    -0.2178   0.3234   0.4130   1.3478

          k = 0.1667 0.4811-0.3333 (  8546 PWs)   bands (ev):

    -6.8938  -6.8938  -6.3177  -6.3177  -1.4171  -1.4171  -0.7814  -0.7814
    -0.1018  -0.1018   0.8879   0.8879

          k = 0.3333 0.5774 0.0000 (  8538 PWs)   bands (ev):

    -6.8190  -6.6533  -6.6533  -6.2480  -1.7138  -1.1573  -1.1573  -0.9660
    -0.9660   0.5525   1.5984   1.8398

          k = 0.3333 0.5774 0.1111 (  8568 PWs)   bands (ev):

    -6.7874  -6.6527  -6.6527  -6.2954  -1.5834  -1.3793  -1.3793  -0.6487
    -0.6487   0.3583   1.3861   1.3862

          k = 0.3333 0.5774 0.2222 (  8562 PWs)   bands (ev):

    -6.6974  -6.6515  -6.6515  -6.4160  -1.5645  -1.5645  -1.2212  -0.1824
    -0.1824  -0.1234   0.8680   0.8680

          k = 0.3333 0.5774-0.3333 (  8586 PWs)   bands (ev):

    -6.6509  -6.6509  -6.5642  -6.5642  -1.6285  -1.6285  -0.7001  -0.7001
     0.3210   0.3210   0.3470   0.3470

     the Fermi energy is    -0.3212 ev

!    total energy              =     -32.98113080 Ry
     estimated scf accuracy    <       0.00000096 Ry
     smearing contrib. (-TS)   =       0.00094294 Ry
     internal energy E=F+TS    =     -32.98207374 Ry

     The total energy is F=E-TS. E is the sum of the following terms:
     one-electron contribution =      -0.16287467 Ry
     hartree contribution      =       3.19248463 Ry
     xc contribution           =     -10.66155939 Ry
     ewald contribution        =     -25.35012431 Ry

     convergence has been achieved in  10 iterations

     Forces acting on atoms (cartesian axes, Ry/au):

     atom    1 type  1   force =    -0.00000000    0.00000000    0.00000000
     atom    2 type  1   force =    -0.00000000   -0.00000000    0.00000000
     atom    3 type  1   force =     0.00000000    0.00000000    0.00000000
     atom    4 type  1   force =     0.00000000   -0.00000000    0.00000000

     Total force =     0.000000     Total SCF correction =     0.000000


     Computing stress (Cartesian axis) and pressure

          total   stress  (Ry/bohr**3)                   (kbar)     P=      -76.42
  -0.00048779   0.00000000   0.00000000          -71.76        0.00        0.00
   0.00000000  -0.00048779   0.00000000            0.00      -71.76        0.00
   0.00000000   0.00000000  -0.00058287            0.00        0.00      -85.74


     BFGS Geometry Optimization
     Energy error            =      3.3E-02 Ry
     Gradient error          =      1.8E-22 Ry/Bohr
     Cell gradient error     =      8.6E+01 kbar

     number of scf cycles    =   1
     number of bfgs steps    =   0

     enthalpy           new  =     -32.9811307999 Ry

     new trust radius        =       0.1000000000 bohr
     new conv_thr            =       0.0000010000 Ry

     new unit-cell volume =   1386.19095 a.u.^3 (   205.41231 Ang^3 )
     density =      0.90817 g/cm^3

CELL_PARAMETERS (alat= 10.34040509)
   0.988958816   0.000000000   0.000000000
  -0.494479408   0.856463458   0.000000000
   0.000000000   0.000000000   1.480210082

ATOMIC_POSITIONS (crystal)
Si              -0.0000000000        0.0000000000        0.0000000000
Si               0.3333330000        0.6666670000        0.2500000000
Si               0.0000000000        0.0000000000        0.5000000000
Si               0.6666670000        0.3333330000        0.7500000000



     Writing config-only to output data dir ./tmp/si.dhcp-relax.save/ :
     XML data file
     NEW-OLD atomic charge density approx. for the potential
     New effective cutoffs (rho, wfc):  205.16   51.33

     total cpu time spent up to now is       55.2 secs

     Self-consistent Calculation

     iteration #  1     ecut=    50.00 Ry     beta= 0.70
     Davidson diagonalization with overlap
     ethr =  1.00E-06,  avg # of iterations =  5.9

     total cpu time spent up to now is       63.5 secs

     total energy              =     -33.00798841 Ry
     estimated scf accuracy    <       0.00001841 Ry

     iteration #  2     ecut=    50.00 Ry     beta= 0.70
     Davidson diagonalization with overlap
     ethr =  1.15E-07,  avg # of iterations =  4.2

     total cpu time spent up to now is       68.9 secs

     total energy              =     -33.00799411 Ry
     estimated scf accuracy    <       0.00002222 Ry

     iteration #  3     ecut=    50.00 Ry     beta= 0.70
     Davidson diagonalization with overlap
     ethr =  1.15E-07,  avg # of iterations =  2.9

     total cpu time spent up to now is       73.1 secs

     End of self-consistent calculation

          k = 0.0000 0.0000 0.0000 (  8597 PWs)   bands (ev):

    -7.7223  -6.5189  -6.2800  -5.2033  -0.4479  -0.4479  -0.2859   0.2966
     0.3255   0.3255   0.4174   0.8716

          k = 0.0000 0.0000 0.1126 (  8603 PWs)   bands (ev):

    -7.6799  -6.7703  -6.0312  -5.2319  -0.4131  -0.4131  -0.3047   0.2285
     0.2285   0.3210   0.4476   0.9690

          k = 0.0000 0.0000 0.2252 (  8573 PWs)   bands (ev):

    -7.5546  -7.0840  -5.7293  -5.3231  -0.3118  -0.3118  -0.2753   0.0380
     0.0380   0.0963   0.8095   1.1709

          k = 0.0000 0.0000-0.3378 (  8650 PWs)   bands (ev):

    -7.3523  -7.3523  -5.4876  -5.4876  -0.1548  -0.1548  -0.1548  -0.1548
    -0.1331  -0.1331   1.2908   1.2908

          k =-0.0000 0.1946 0.0000 (  8580 PWs)   bands (ev):

    -7.6069  -6.4914  -6.2358  -5.4099  -0.9611  -0.6799  -0.3622  -0.2846
     0.4334   0.4377   0.7970   0.9469

          k =-0.0000 0.1946 0.1126 (  8572 PWs)   bands (ev):

    -7.5660  -6.7082  -6.0336  -5.4277  -0.9355  -0.6383  -0.4382  -0.1497
     0.2330   0.4161   0.8039   1.0053

          k =-0.0000 0.1946 0.2252 (  8615 PWs)   bands (ev):

    -7.4454  -6.9981  -5.7879  -5.4873  -0.8482  -0.5454  -0.5154  -0.0601
     0.0467   0.4500   0.5844   1.2293

          k =-0.0000 0.1946-0.3378 (  8572 PWs)   bands (ev):

    -7.2519  -7.2519  -5.6033  -5.6033  -0.7009  -0.7009  -0.3183  -0.3183
     0.2540   0.2540   0.8228   0.8228

          k =-0.0000 0.3892 0.0000 (  8552 PWs)   bands (ev):

    -7.2865  -6.4677  -6.1418  -5.8630  -1.5646  -1.0093  -0.9799  -0.0056
     0.4574   0.4667   0.6614   0.7378

          k =-0.0000 0.3892 0.1126 (  8578 PWs)   bands (ev):

    -7.2506  -6.5789  -6.0717  -5.8644  -1.4794  -0.9722  -0.9329  -0.1629
     0.1200   0.4460   0.8097   1.0352

          k =-0.0000 0.3892 0.2252 (  8581 PWs)   bands (ev):

    -7.1460  -6.7821  -5.9750  -5.8753  -1.2605  -0.9043  -0.7933  -0.3535
    -0.2560   0.1668   1.0503   1.4835

          k =-0.0000 0.3892-0.3378 (  8594 PWs)   bands (ev):

    -6.9833  -6.9833  -5.9091  -5.9091  -1.0127  -1.0127  -0.5651  -0.5651
    -0.2139  -0.2139   1.3788   1.3788

          k = 0.0000-0.5838 0.0000 (  8532 PWs)   bands (ev):

    -6.9675  -6.5974  -6.0988  -6.0916  -1.7829  -1.2561  -1.0948   0.2501
     0.3733   0.4457   0.4644   0.5993

          k = 0.0000-0.5838 0.1126 (  8588 PWs)   bands (ev):

    -6.9389  -6.6102  -6.1148  -6.1102  -1.6604  -1.2256  -1.0464  -0.0846
     0.0545   0.2815   0.8625   1.0289

          k = 0.0000-0.5838 0.2252 (  8592 PWs)   bands (ev):

    -6.8602  -6.6602  -6.1530  -6.1372  -1.3489  -1.1434  -0.9022  -0.3945
    -0.3430  -0.0390   1.3710   1.5308

          k = 0.0000-0.5838-0.3378 (  8596 PWs)   bands (ev):

    -6.7541  -6.7541  -6.1601  -6.1601  -1.0991  -1.0991  -0.6656  -0.6656
    -0.4145  -0.4145   1.7510   1.7511

          k = 0.1685 0.2919 0.0000 (  8591 PWs)   bands (ev):

    -7.3868  -6.4570  -6.1661  -5.7488  -1.4486  -0.8069  -0.6712  -0.5474
     0.0942   0.5059   1.0298   1.4592

          k = 0.1685 0.2919 0.1126 (  8578 PWs)   bands (ev):

    -7.3491  -6.6058  -6.0517  -5.7528  -1.3552  -0.9382  -0.6478  -0.4311
     0.0981   0.3802   1.1092   1.3001

          k = 0.1685 0.2919 0.2252 (  8575 PWs)   bands (ev):

    -7.2387  -6.8430  -5.9088  -5.7703  -1.0993  -0.9933  -0.8294  -0.2276
    -0.0483   0.4613   0.9183   1.0180

          k = 0.1685 0.2919-0.3378 (  8558 PWs)   bands (ev):

    -7.0644  -7.0644  -5.8165  -5.8165  -0.9710  -0.9710  -0.6770  -0.6770
     0.3833   0.3833   0.7652   0.7652

          k = 0.1685 0.4865 0.0000 (  8589 PWs)   bands (ev):

    -7.0079  -6.4921  -6.1667  -6.0922  -1.6978  -1.1111  -1.0583  -0.5479
    -0.2474   0.5589   1.3479   1.3845

          k = 0.1685 0.4865 0.1126 (  8580 PWs)   bands (ev):

    -6.9770  -6.5267  -6.1717  -6.0985  -1.5773  -1.2775  -0.8622  -0.7263
     0.0692   0.4004   0.9520   1.6478

          k = 0.1685 0.4865 0.2252 (  8559 PWs)   bands (ev):

    -6.8895  -6.6269  -6.1681  -6.1185  -1.3631  -1.3022  -1.0003  -0.4280
    -0.0518   0.4999   0.5934   1.5716

          k = 0.1685 0.4865-0.3378 (  8546 PWs)   bands (ev):

    -6.7623  -6.7623  -6.1463  -6.1463  -1.3259  -1.3259  -0.6468  -0.6468
     0.0566   0.0566   1.0899   1.0899

          k = 0.3371 0.5838 0.0000 (  8538 PWs)   bands (ev):

    -6.6945  -6.4989  -6.4989  -6.0669  -1.6355  -1.0517  -1.0517  -0.8559
    -0.8559   0.7683   1.8417   2.0919

          k = 0.3371 0.5838 0.1126 (  8568 PWs)   bands (ev):

    -6.6603  -6.4982  -6.4982  -6.1200  -1.4957  -1.2872  -1.2872  -0.5206
    -0.5206   0.5646   1.6133   1.6134

          k = 0.3371 0.5838 0.2252 (  8562 PWs)   bands (ev):

    -6.5627  -6.4967  -6.4967  -6.2542  -1.4826  -1.4826  -1.1090  -0.0309
    -0.0309   0.0558   1.0704   1.0704

          k = 0.3371 0.5838-0.3378 (  8586 PWs)   bands (ev):

    -6.4960  -6.4960  -6.4173  -6.4173  -1.5500  -1.5500  -0.5552  -0.5552
     0.5007   0.5007   0.5209   0.5209

     the Fermi energy is    -0.1723 ev

!    total energy              =     -33.00799900 Ry
     estimated scf accuracy    <       0.00000030 Ry
     smearing contrib. (-TS)   =       0.00089720 Ry
     internal energy E=F+TS    =     -33.00889620 Ry

     The total energy is F=E-TS. E is the sum of the following terms:
     one-electron contribution =       0.24043819 Ry
     hartree contribution      =       3.08528390 Ry
     xc contribution           =     -10.68435323 Ry
     ewald contribution        =     -25.65026506 Ry

     convergence has been achieved in   3 iterations

     Forces acting on atoms (cartesian axes, Ry/au):

     atom    1 type  1   force =     0.00000000    0.00000000    0.00000000
     atom    2 type  1   force =     0.00000000    0.00000000   -0.00000000
     atom    3 type  1   force =     0.00000000    0.00000000    0.00000000
     atom    4 type  1   force =     0.00000000    0.00000000    0.00000000

     Total force =     0.000000     Total SCF correction =     0.000000


     Computing stress (Cartesian axis) and pressure

          total   stress  (Ry/bohr**3)                   (kbar)     P=      -80.34
  -0.00051267   0.00000000   0.00000000          -75.42        0.00        0.00
   0.00000000  -0.00051267   0.00000000            0.00      -75.42        0.00
  -0.00000000  -0.00000000  -0.00061298           -0.00       -0.00      -90.17

     Energy error            =      2.7E-02 Ry
     Gradient error          =      1.4E-22 Ry/Bohr
     Cell gradient error     =      9.0E+01 kbar

     number of scf cycles    =   2
     number of bfgs steps    =   1

     enthalpy           old  =     -32.9811307999 Ry
     enthalpy           new  =     -33.0079989995 Ry

     CASE: enthalpy          _new < enthalpy          _old


     WARNING: bfgs curvature condition failed, Theta= 0.777
     new trust radius        =       0.1493321836 bohr
     new conv_thr            =       0.0000000100 Ry

     new unit-cell volume =   1313.13789 a.u.^3 (   194.58696 Ang^3 )
     density =      0.95869 g/cm^3

CELL_PARAMETERS (alat= 10.34040509)
   0.972346113   0.000000000   0.000000000
  -0.486173056   0.842076435   0.000000000
   0.000000000   0.000000000   1.450525206

ATOMIC_POSITIONS (crystal)
Si              -0.0000000000       -0.0000000000       -0.0000000000
Si               0.3333330000        0.6666670000        0.2500000000
Si               0.0000000000        0.0000000000        0.5000000000
Si               0.6666670000        0.3333330000        0.7500000000



     Writing config-only to output data dir ./tmp/si.dhcp-relax.save/ :
     XML data file
     NEW-OLD atomic charge density approx. for the potential
     New effective cutoffs (rho, wfc):  213.49   53.43

     total cpu time spent up to now is       78.3 secs

     Self-consistent Calculation

     iteration #  1     ecut=    50.00 Ry     beta= 0.70
     Davidson diagonalization with overlap
     ethr =  1.00E-06,  avg # of iterations =  7.1

     total cpu time spent up to now is       88.0 secs

     total energy              =     -33.04967326 Ry
     estimated scf accuracy    <       0.00001844 Ry

     iteration #  2     ecut=    50.00 Ry     beta= 0.70
     Davidson diagonalization with overlap
     ethr =  1.15E-07,  avg # of iterations =  3.9

     total cpu time spent up to now is       93.0 secs

     total energy              =     -33.04968132 Ry
     estimated scf accuracy    <       0.00000049 Ry

     iteration #  3     ecut=    50.00 Ry     beta= 0.70
     Davidson diagonalization with overlap
     ethr =  3.03E-09,  avg # of iterations =  5.2

     total cpu time spent up to now is       99.2 secs

     total energy              =     -33.04968198 Ry
     estimated scf accuracy    <       0.00000015 Ry

     iteration #  4     ecut=    50.00 Ry     beta= 0.70
     Davidson diagonalization with overlap
     ethr =  9.40E-10,  avg # of iterations =  4.3

     total cpu time spent up to now is      104.6 secs

     total energy              =     -33.04968202 Ry
     estimated scf accuracy    <       0.00000023 Ry

     iteration #  5     ecut=    50.00 Ry     beta= 0.70
     Davidson diagonalization with overlap
     ethr =  9.40E-10,  avg # of iterations =  2.2

     total cpu time spent up to now is      108.6 secs

     total energy              =     -33.04968203 Ry
     estimated scf accuracy    <       0.00000002 Ry

     iteration #  6     ecut=    50.00 Ry     beta= 0.70
     Davidson diagonalization with overlap
     ethr =  1.35E-10,  avg # of iterations =  5.1

     total cpu time spent up to now is      114.0 secs

     total energy              =     -33.04968205 Ry
     estimated scf accuracy    <       0.00000001 Ry

     iteration #  7     ecut=    50.00 Ry     beta= 0.70
     Davidson diagonalization with overlap
     ethr =  7.19E-11,  avg # of iterations =  1.5

     total cpu time spent up to now is      117.6 secs

     End of self-consistent calculation

          k = 0.0000 0.0000 0.0000 (  8597 PWs)   bands (ev):

    -7.6102  -6.2851  -6.0284  -4.8118  -0.2426  -0.2425  -0.0441   0.5680
     0.5680   0.5993   0.7117   1.1709

          k =-0.0000-0.0000 0.1149 (  8603 PWs)   bands (ev):

    -7.5642  -6.5674  -5.7456  -4.8433  -0.2054  -0.2054  -0.0694   0.4701
     0.4701   0.6021   0.7606   1.2673

          k =-0.0000-0.0000 0.2298 (  8573 PWs)   bands (ev):

    -7.4280  -6.9135  -5.4037  -4.9446  -0.0977  -0.0977  -0.0473   0.2722
     0.2723   0.3502   1.1439   1.4735

          k = 0.0000 0.0000-0.3447 (  8650 PWs)   bands (ev):

    -7.2074  -7.2074  -5.1298  -5.1298   0.0690   0.0690   0.0690   0.0690
     0.1001   0.1001   1.6499   1.6499

          k =-0.0000 0.1979 0.0000 (  8580 PWs)   bands (ev):

    -7.4855  -6.2525  -5.9762  -5.0519  -0.7827  -0.4933  -0.1258  -0.0487
     0.6946   0.7234   1.0872   1.2502

          k =-0.0000 0.1979 0.1149 (  8572 PWs)   bands (ev):

    -7.4409  -6.4970  -5.7455  -5.0704  -0.7587  -0.4490  -0.2157   0.1011
     0.4788   0.7006   1.0998   1.3060

          k =-0.0000 0.1979 0.2298 (  8615 PWs)   bands (ev):

    -7.3094  -6.8185  -5.4678  -5.1339  -0.6706  -0.3387  -0.3182   0.1670
     0.3040   0.7314   0.8719   1.5658

          k =-0.0000 0.1979-0.3447 (  8572 PWs)   bands (ev):

    -7.0976  -7.0976  -5.2611  -5.2611  -0.5124  -0.5124  -0.1082  -0.1082
     0.5166   0.5166   1.1360   1.1360

          k =-0.0000 0.3958 0.0000 (  8552 PWs)   bands (ev):

    -7.1377  -6.2244  -5.8641  -5.5648  -1.4308  -0.8322  -0.8134   0.2651
     0.7269   0.7355   0.9365   1.0372

          k =-0.0000 0.3958 0.1149 (  8578 PWs)   bands (ev):

    -7.0981  -6.3501  -5.7860  -5.5645  -1.3396  -0.7895  -0.7636   0.0875
     0.3566   0.7287   1.1243   1.3376

          k =-0.0000 0.3958 0.2298 (  8581 PWs)   bands (ev):

    -6.9828  -6.5782  -5.6801  -5.5734  -1.1040  -0.7107  -0.6155  -0.1263
    -0.0442   0.4396   1.3759   1.8207

          k =-0.0000 0.3958-0.3447 (  8594 PWs)   bands (ev):

    -6.8025  -6.8025  -5.6088  -5.6088  -0.8326  -0.8326  -0.3731  -0.3731
     0.0273   0.0273   1.7237   1.7237

          k = 0.0000-0.5938 0.0000 (  8532 PWs)   bands (ev):

    -6.7876  -6.3786  -5.8171  -5.8035  -1.6663  -1.1037  -0.9353   0.5379
     0.6555   0.7035   0.7345   0.8679

          k = 0.0000-0.5938 0.1149 (  8588 PWs)   bands (ev):

    -6.7556  -6.3910  -5.8338  -5.8314  -1.5291  -1.0689  -0.8841   0.1643
     0.2856   0.5681   1.1745   1.3293

          k = 0.0000-0.5938 0.2298 (  8592 PWs)   bands (ev):

    -6.6672  -6.4437  -5.8840  -5.8654  -1.1822  -0.9742  -0.7313  -0.1726
    -0.1377   0.2321   1.7187   1.8714

          k = 0.0000-0.5938-0.3447 (  8596 PWs)   bands (ev):

    -6.5479  -6.5479  -5.8939  -5.8939  -0.9135  -0.9135  -0.4804  -0.4804
    -0.1864  -0.1864   2.0965   2.0965

          k = 0.1714 0.2969 0.0000 (  8591 PWs)   bands (ev):

    -7.2470  -6.2113  -5.8934  -5.4383  -1.3109  -0.6105  -0.4762  -0.3341
     0.3379   0.7952   1.3484   1.7976

          k = 0.1714 0.2969 0.1149 (  8578 PWs)   bands (ev):

    -7.2056  -6.3806  -5.7624  -5.4412  -1.2106  -0.7616  -0.4469  -0.2088
     0.3522   0.6545   1.4309   1.6277

          k = 0.1714 0.2969 0.2298 (  8575 PWs)   bands (ev):

    -7.0843  -6.6462  -5.6027  -5.4566  -0.9360  -0.8245  -0.6480   0.0084
     0.2061   0.7337   1.2419   1.3270

          k = 0.1714 0.2969-0.3447 (  8558 PWs)   bands (ev):

    -6.8920  -6.8920  -5.5030  -5.5030  -0.8027  -0.8027  -0.4785  -0.4785
     0.6670   0.6670   1.0611   1.0611

          k = 0.1714 0.4948 0.0000 (  8589 PWs)   bands (ev):

    -6.8337  -6.2544  -5.8999  -5.8043  -1.5765  -0.9479  -0.8941  -0.3374
    -0.0323   0.8698   1.6835   1.7302

          k = 0.1714 0.4948 0.1149 (  8580 PWs)   bands (ev):

    -6.7992  -6.2924  -5.9065  -5.8136  -1.4424  -1.1305  -0.6801  -0.5356
     0.3173   0.7012   1.2643   2.0081

          k = 0.1714 0.4948 0.2298 (  8559 PWs)   bands (ev):

    -6.7013  -6.4049  -5.9030  -5.8405  -1.2216  -1.1431  -0.8291  -0.2082
     0.2162   0.7791   0.8840   1.9285

          k = 0.1714 0.4948-0.3447 (  8546 PWs)   bands (ev):

    -6.5580  -6.5580  -5.8759  -5.8759  -1.1805  -1.1805  -0.4286  -0.4286
     0.3098   0.3098   1.4124   1.4124

          k = 0.3428 0.5938 0.0000 (  8538 PWs)   bands (ev):

    -6.4966  -6.2618  -6.2618  -5.7737  -1.5091  -0.8828  -0.8828  -0.6811
    -0.6811   1.1135   2.2355   2.4950

          k = 0.3428 0.5938 0.1149 (  8568 PWs)   bands (ev):

    -6.4583  -6.2608  -6.2608  -5.8369  -1.3534  -1.1406  -1.1406  -0.3164
    -0.3164   0.8966   1.9760   1.9761

          k = 0.3428 0.5938 0.2298 (  8562 PWs)   bands (ev):

    -6.3483  -6.2587  -6.2587  -5.9947  -1.3523  -1.3523  -0.9259   0.2110
     0.2111   0.3463   1.3936   1.3936

          k = 0.3428 0.5938-0.3447 (  8586 PWs)   bands (ev):

    -6.2577  -6.2577  -6.1829  -6.1829  -1.4255  -1.4255  -0.3192  -0.3192
     0.7924   0.7924   0.7936   0.7936

     the Fermi energy is     0.0660 ev

!    total energy              =     -33.04968204 Ry
     estimated scf accuracy    <          3.3E-09 Ry
     smearing contrib. (-TS)   =       0.00087957 Ry
     internal energy E=F+TS    =     -33.05056162 Ry

     The total energy is F=E-TS. E is the sum of the following terms:
     one-electron contribution =       0.86050914 Ry
     hartree contribution      =       2.92618453 Ry
     xc contribution           =     -10.72221013 Ry
     ewald contribution        =     -26.11504515 Ry

     convergence has been achieved in   7 iterations

     Forces acting on atoms (cartesian axes, Ry/au):

     atom    1 type  1   force =     0.00000000    0.00000000   -0.00000000
     atom    2 type  1   force =     0.00000000   -0.00000000    0.00000000
     atom    3 type  1   force =    -0.00000000   -0.00000000    0.00000000
     atom    4 type  1   force =    -0.00000000    0.00000000    0.00000000

     Total force =     0.000000     Total SCF correction =     0.000000


     Computing stress (Cartesian axis) and pressure

          total   stress  (Ry/bohr**3)                   (kbar)     P=      -86.41
  -0.00055181   0.00000000   0.00000000          -81.17        0.00        0.00
   0.00000000  -0.00055181   0.00000000            0.00      -81.17        0.00
   0.00000000   0.00000000  -0.00065860            0.00        0.00      -96.88

     Energy error            =      4.2E-02 Ry
     Gradient error          =      1.7E-22 Ry/Bohr
     Cell gradient error     =      9.7E+01 kbar

     number of scf cycles    =   3
     number of bfgs steps    =   2

     enthalpy           old  =     -33.0079989995 Ry
     enthalpy           new  =     -33.0496820440 Ry

     CASE: enthalpy          _new < enthalpy          _old


     WARNING: bfgs curvature condition failed, Theta= 0.459
     new trust radius        =       0.2224776507 bohr
     new conv_thr            =       0.0000000100 Ry

     new unit-cell volume =   1208.26157 a.u.^3 (   179.04589 Ang^3 )
     density =      1.04190 g/cm^3

CELL_PARAMETERS (alat= 10.34040509)
   0.947363182   0.000000000   0.000000000
  -0.473681591   0.820440582   0.000000000
  -0.000000000  -0.000000000   1.405997891

ATOMIC_POSITIONS (crystal)
Si              -0.0000000000       -0.0000000000        0.0000000000
Si               0.3333330000        0.6666670000        0.2500000000
Si               0.0000000000        0.0000000000        0.5000000000
Si               0.6666670000        0.3333330000        0.7500000000



     Writing config-only to output data dir ./tmp/si.dhcp-relax.save/ :
     XML data file
     NEW-OLD atomic charge density approx. for the potential
     New effective cutoffs (rho, wfc):  226.98   56.86

     total cpu time spent up to now is      122.7 secs

     Self-consistent Calculation

     iteration #  1     ecut=    50.00 Ry     beta= 0.70
     Davidson diagonalization with overlap
     ethr =  1.00E-06,  avg # of iterations =  8.3

     total cpu time spent up to now is      133.5 secs

     total energy              =     -33.11515530 Ry
     estimated scf accuracy    <       0.00004247 Ry

     iteration #  2     ecut=    50.00 Ry     beta= 0.70
     Davidson diagonalization with overlap
     ethr =  2.65E-07,  avg # of iterations =  2.3

     total cpu time spent up to now is      137.8 secs

     total energy              =     -33.11516353 Ry
     estimated scf accuracy    <       0.00000169 Ry

     iteration #  3     ecut=    50.00 Ry     beta= 0.70
     Davidson diagonalization with overlap
     ethr =  1.06E-08,  avg # of iterations =  4.9

     total cpu time spent up to now is      143.5 secs

     total energy              =     -33.11516481 Ry
     estimated scf accuracy    <       0.00000083 Ry

     iteration #  4     ecut=    50.00 Ry     beta= 0.70
     Davidson diagonalization with overlap
     ethr =  5.17E-09,  avg # of iterations =  2.8

     total cpu time spent up to now is      147.8 secs

     total energy              =     -33.11516508 Ry
     estimated scf accuracy    <       0.00000011 Ry

     iteration #  5     ecut=    50.00 Ry     beta= 0.70
     Davidson diagonalization with overlap
     ethr =  6.76E-10,  avg # of iterations =  2.3

     total cpu time spent up to now is      151.9 secs

     total energy              =     -33.11516510 Ry
     estimated scf accuracy    <       0.00000001 Ry

     iteration #  6     ecut=    50.00 Ry     beta= 0.70
     Davidson diagonalization with overlap
     ethr =  7.49E-11,  avg # of iterations =  4.0

     total cpu time spent up to now is      156.8 secs

     End of self-consistent calculation

          k = 0.0000 0.0000 0.0000 (  8597 PWs)   bands (ev):

    -7.4351  -5.9070  -5.6284  -4.1626   0.0940   0.0940   0.3610   0.9649
     0.9649   1.1144   1.2012   1.6594

          k =-0.0000-0.0000 0.1185 (  8603 PWs)   bands (ev):

    -7.3833  -6.2435  -5.2839  -4.1988   0.1348   0.1349   0.3243   0.8655
     0.8656   1.0673   1.2906   1.7531

          k =-0.0000-0.0000 0.2371 (  8573 PWs)   bands (ev):

    -7.2295  -6.6436  -4.8711  -4.3175   0.2533   0.2533   0.3312   0.6563
     0.6563   0.7677   1.7053   1.9637

          k = 0.0000 0.0000-0.3556 (  8650 PWs)   bands (ev):

    -6.9793  -6.9793  -4.5393  -4.5393   0.4359   0.4359   0.4359   0.4359
     0.4837   0.4837   2.2473   2.2473

          k =-0.0000 0.2031 0.0000 (  8580 PWs)   bands (ev):

    -7.2956  -5.8648  -5.5619  -4.4658  -0.4856  -0.1874   0.2711   0.3466
     1.1164   1.2049   1.5599   1.7509

          k =-0.0000 0.2031 0.1185 (  8572 PWs)   bands (ev):

    -7.2452  -6.1590  -5.2786  -4.4849  -0.4656  -0.1388   0.1565   0.5200
     0.8817   1.1720   1.5884   1.7962

          k =-0.0000 0.2031 0.2371 (  8615 PWs)   bands (ev):

    -7.0959  -6.5336  -4.9437  -4.5533  -0.3788   0.0043   0.0050   0.5390
     0.7288   1.1979   1.3466   2.1178

          k =-0.0000 0.2031-0.3556 (  8572 PWs)   bands (ev):

    -6.8544  -6.8544  -4.6985  -4.6985  -0.2028  -0.2028   0.2360   0.2360
     0.9499   0.9499   1.6530   1.6530

          k =-0.0000 0.4063 0.0000 (  8552 PWs)   bands (ev):

    -6.9041  -5.8285  -5.4163  -5.0828  -1.2082  -0.5399  -0.5372   0.7209
     1.1545   1.1955   1.3833   1.5288

          k =-0.0000 0.4063 0.1185 (  8578 PWs)   bands (ev):

    -6.8586  -5.9807  -5.3240  -5.0787  -1.1078  -0.4855  -0.4834   0.5061
     0.7438   1.1982   1.6453   1.8311

          k =-0.0000 0.4063 0.2371 (  8581 PWs)   bands (ev):

    -6.7254  -6.2524  -5.2027  -5.0827  -0.8445  -0.3833  -0.3237   0.2496
     0.3023   0.8950   1.9121   2.3717

          k =-0.0000 0.4063-0.3556 (  8594 PWs)   bands (ev):

    -6.5158  -6.5158  -5.1213  -5.1213  -0.5307  -0.5307  -0.0585  -0.0585
     0.4281   0.4281   2.2907   2.2907

          k = 0.0000-0.6094-0.0000 (  8532 PWs)   bands (ev):

    -6.5042  -6.0275  -5.3568  -5.3358  -1.4737  -0.8523  -0.6732   1.0197
     1.1191   1.1269   1.1812   1.3039

          k = 0.0000-0.6094 0.1185 (  8588 PWs)   bands (ev):

    -6.4663  -6.0390  -5.3805  -5.3771  -1.3092  -0.8093  -0.6174   0.5780
     0.6635   1.0436   1.6931   1.8195

          k = 0.0000-0.6094 0.2371 (  8592 PWs)   bands (ev):

    -6.3611  -6.0958  -5.4537  -5.4257  -0.8982  -0.6909  -0.4508   0.1950
     0.1984   0.6874   2.2936   2.4279

          k = 0.0000-0.6094-0.3556 (  8596 PWs)   bands (ev):

    -6.2184  -6.2184  -5.4673  -5.4673  -0.5981  -0.5981  -0.1768  -0.1768
     0.1934   0.1934   2.6511   2.6512

          k = 0.1759 0.3047 0.0000 (  8591 PWs)   bands (ev):

    -7.0277  -5.8108  -5.4548  -4.9368  -1.0837  -0.2818  -0.1541   0.0232
     0.7368   1.2782   1.8723   2.3547

          k = 0.1759 0.3047 0.1185 (  8578 PWs)   bands (ev):

    -6.9804  -6.0177  -5.2924  -4.9371  -0.9723  -0.4694  -0.1128   0.1621
     0.7735   1.1092   1.9589   2.1668

          k = 0.1759 0.3047 0.2371 (  8575 PWs)   bands (ev):

    -6.8411  -6.3325  -5.1026  -4.9471  -0.6672  -0.5461  -0.3485   0.4022
     0.6302   1.1827   1.7763   1.8350

          k = 0.1759 0.3047-0.3556 (  8558 PWs)   bands (ev):

    -6.6191  -6.6191  -4.9917  -4.9917  -0.5260  -0.5260  -0.1491  -0.1491
     1.1388   1.1388   1.5474   1.5474

          k = 0.1759 0.5079 0.0000 (  8589 PWs)   bands (ev):

    -6.5596  -5.8697  -5.4680  -5.3371  -1.3763  -0.6781  -0.6229   0.0133
     0.3204   1.3879   2.2334   2.3012

          k = 0.1759 0.5079 0.1185 (  8580 PWs)   bands (ev):

    -6.5191  -5.9134  -5.4793  -5.3518  -1.2177  -0.8886  -0.3778  -0.2203
     0.7265   1.2056   1.7792   2.5973

          k = 0.1759 0.5079 0.2371 (  8559 PWs)   bands (ev):

    -6.4033  -6.0477  -5.4769  -5.3910  -0.9894  -0.8760  -0.5454   0.1574
     0.6659   1.2391   1.3667   2.5167

          k = 0.1759 0.5079-0.3556 (  8546 PWs)   bands (ev):

    -6.2324  -6.2324  -5.4403  -5.4403  -0.9406  -0.9406  -0.0618  -0.0618
     0.7300   0.7300   1.9446   1.9446

          k = 0.3519 0.6094 0.0000 (  8538 PWs)   bands (ev):

    -6.1873  -5.8773  -5.8773  -5.2963  -1.3009  -0.6015  -0.6015  -0.3938
    -0.3938   1.6949   2.8838   3.1593

          k = 0.3519 0.6094 0.1185 (  8568 PWs)   bands (ev):

    -6.1421  -5.8756  -5.8756  -5.3790  -1.1162  -0.8984  -0.8984   0.0215
     0.0215   1.4571   2.5742   2.5743

          k = 0.3519 0.6094 0.2371 (  8562 PWs)   bands (ev):

    -6.0116  -5.8722  -5.8722  -5.5800  -1.1381  -1.1381  -0.6173   0.6114
     0.6114   0.8371   1.9282   1.9282

          k = 0.3519 0.6094-0.3556 (  8586 PWs)   bands (ev):

    -5.8705  -5.8705  -5.8123  -5.8123  -1.2209  -1.2209   0.0795   0.0795
     1.2438   1.2438   1.2766   1.2766

     the Fermi energy is     0.4604 ev

!    total energy              =     -33.11516511 Ry
     estimated scf accuracy    <          1.6E-10 Ry
     smearing contrib. (-TS)   =       0.00099682 Ry
     internal energy E=F+TS    =     -33.11616192 Ry

     The total energy is F=E-TS. E is the sum of the following terms:
     one-electron contribution =       1.82574855 Ry
     hartree contribution      =       2.69133605 Ry
     xc contribution           =     -10.78718213 Ry
     ewald contribution        =     -26.84606440 Ry

     convergence has been achieved in   6 iterations

     Forces acting on atoms (cartesian axes, Ry/au):

     atom    1 type  1   force =     0.00000000   -0.00000000    0.00000000
     atom    2 type  1   force =     0.00000000   -0.00000000    0.00000000
     atom    3 type  1   force =     0.00000000    0.00000000    0.00000000
     atom    4 type  1   force =    -0.00000000    0.00000000   -0.00000000

     Total force =     0.000000     Total SCF correction =     0.000000


     Computing stress (Cartesian axis) and pressure

          total   stress  (Ry/bohr**3)                   (kbar)     P=      -96.13
  -0.00061521  -0.00000000   0.00000000          -90.50       -0.00        0.00
  -0.00000000  -0.00061521   0.00000000           -0.00      -90.50        0.00
  -0.00000000  -0.00000000  -0.00073006           -0.00       -0.00     -107.40

     Energy error            =      6.5E-02 Ry
     Gradient error          =      1.1E-22 Ry/Bohr
     Cell gradient error     =      1.1E+02 kbar

     number of scf cycles    =   4
     number of bfgs steps    =   3

     enthalpy           old  =     -33.0496820440 Ry
     enthalpy           new  =     -33.1151651066 Ry

     CASE: enthalpy          _new < enthalpy          _old


     WARNING: bfgs curvature condition failed, Theta= 0.672
     uphill step: resetting bfgs history

     new trust radius        =       0.1268850209 bohr
     new conv_thr            =       0.0000000100 Ry

     new unit-cell volume =   1150.00136 a.u.^3 (   170.41262 Ang^3 )
     density =      1.09469 g/cm^3

CELL_PARAMETERS (alat= 10.34040509)
   0.932792587   0.000000000  -0.000000000
  -0.466396293   0.807822076  -0.000000000
   0.000000000   0.000000000   1.380336243

ATOMIC_POSITIONS (crystal)
Si              -0.0000000000       -0.0000000000        0.0000000000
Si               0.3333330000        0.6666670000        0.2500000000
Si               0.0000000000        0.0000000000        0.5000000000
Si               0.6666670000        0.3333330000        0.7500000000



     Writing config-only to output data dir ./tmp/si.dhcp-relax.save/ :
     XML data file
     NEW-OLD atomic charge density approx. for the potential
     New effective cutoffs (rho, wfc):  235.36   58.99

     total cpu time spent up to now is      161.7 secs

     Self-consistent Calculation

     iteration #  1     ecut=    50.00 Ry     beta= 0.70
     Davidson diagonalization with overlap
     ethr =  1.00E-06,  avg # of iterations =  6.9

     total cpu time spent up to now is      171.3 secs

     total energy              =     -33.15465244 Ry
     estimated scf accuracy    <       0.00001899 Ry

     iteration #  2     ecut=    50.00 Ry     beta= 0.70
     Davidson diagonalization with overlap
     ethr =  1.19E-07,  avg # of iterations =  3.5

     total cpu time spent up to now is      176.1 secs

     total energy              =     -33.15465999 Ry
     estimated scf accuracy    <       0.00000060 Ry

     iteration #  3     ecut=    50.00 Ry     beta= 0.70
     Davidson diagonalization with overlap
     ethr =  3.77E-09,  avg # of iterations =  4.8

     total cpu time spent up to now is      181.9 secs

     total energy              =     -33.15466059 Ry
     estimated scf accuracy    <       0.00000009 Ry

     iteration #  4     ecut=    50.00 Ry     beta= 0.70
     Davidson diagonalization with overlap
     ethr =  5.56E-10,  avg # of iterations =  4.1

     total cpu time spent up to now is      186.9 secs

     total energy              =     -33.15466062 Ry
     estimated scf accuracy    <       0.00000008 Ry

     iteration #  5     ecut=    50.00 Ry     beta= 0.70
     Davidson diagonalization with overlap
     ethr =  4.93E-10,  avg # of iterations =  2.2

     total cpu time spent up to now is      190.9 secs

     End of self-consistent calculation

          k = 0.0000 0.0000 0.0000 (  8597 PWs)   bands (ev):

    -7.3295  -5.6736  -5.3828  -3.7488   0.3067   0.3067   0.6243   1.2141
     1.2141   1.4506   1.5128   1.9675

          k = 0.0000 0.0000 0.1207 (  8603 PWs)   bands (ev):

    -7.2741  -6.0455  -4.9973  -3.7879   0.3499   0.3499   0.5795   1.1142
     1.1143   1.3621   1.6354   2.0584

          k = 0.0000 0.0000 0.2415 (  8573 PWs)   bands (ev):

    -7.1095  -6.4794  -4.5365  -3.9180   0.4750   0.4751   0.5741   0.8986
     0.8986   1.0309   2.0677   2.2697

          k =-0.0000-0.0000-0.3622 (  8650 PWs)   bands (ev):

    -6.8411  -6.8411  -4.1649  -4.1649   0.6676   0.6676   0.6676   0.6676
     0.7266   0.7266   2.5431   2.5431

          k =-0.0000 0.2063-0.0000 (  8580 PWs)   bands (ev):

    -7.1810  -5.6248  -5.3066  -4.0978  -0.2943   0.0058   0.5270   0.6026
     1.3820   1.5108   1.8573   2.0687

          k =-0.0000 0.2063 0.1207 (  8572 PWs)   bands (ev):

    -7.1269  -5.9517  -4.9875  -4.1167  -0.2780   0.0572   0.3967   0.7890
     1.1355   1.4714   1.8988   2.1040

          k =-0.0000 0.2063 0.2415 (  8615 PWs)   bands (ev):

    -6.9667  -6.3599  -4.6140  -4.1871  -0.1940   0.2090   0.2237   0.7735
     0.9982   1.4946   1.6494   2.4664

          k =-0.0000 0.2063-0.3622 (  8572 PWs)   bands (ev):

    -6.7068  -6.7068  -4.3431  -4.3431  -0.0072  -0.0072   0.4532   0.4532
     1.2245   1.2245   1.9817   1.9817

          k =-0.0000 0.4126-0.0000 (  8552 PWs)   bands (ev):

    -6.7626  -5.5825  -5.1376  -4.7838  -1.0649  -0.3668  -0.3484   1.0164
     1.4235   1.4869   1.6638   1.8384

          k =-0.0000 0.4126 0.1207 (  8578 PWs)   bands (ev):

    -6.7133  -5.7525  -5.0364  -4.7761  -0.9595  -0.3096  -0.2863   0.7752
     0.9874   1.4969   1.9770   2.1411

          k =-0.0000 0.4126 0.2415 (  8581 PWs)   bands (ev):

    -6.5690  -6.0525  -4.9060  -4.7759  -0.6789  -0.1700  -0.1393   0.4887
     0.5207   1.1866   2.2515   2.7181

          k =-0.0000 0.4126-0.3622 (  8594 PWs)   bands (ev):

    -6.3409  -6.3409  -4.8174  -4.8174  -0.3360  -0.3360   0.1401   0.1401
     0.6838   0.6838   2.6491   2.6491

          k = 0.0000-0.6189 0.0000 (  8532 PWs)   bands (ev):

    -6.3316  -5.8125  -5.0680  -5.0425  -1.3507  -0.6931  -0.5071   1.3307
     1.3931   1.4100   1.4642   1.5774

          k = 0.0000-0.6189 0.1207 (  8588 PWs)   bands (ev):

    -6.2900  -5.8231  -5.0982  -5.0930  -1.1670  -0.6440  -0.4484   0.8425
     0.9013   1.3451   2.0245   2.1271

          k = 0.0000-0.6189 0.2415 (  8592 PWs)   bands (ev):

    -6.1740  -5.8817  -5.1889  -5.1528  -0.7119  -0.5087  -0.2734   0.4102
     0.4293   0.9806   2.6587   2.7776

          k = 0.0000-0.6189-0.3622 (  8596 PWs)   bands (ev):

    -6.0160  -6.0160  -5.2046  -5.2046  -0.3920  -0.3920   0.0149   0.0149
     0.4364   0.4364   2.9923   2.9923

          k = 0.1787 0.3095-0.0000 (  8591 PWs)   bands (ev):

    -6.8950  -5.5617  -5.1826  -4.6260  -0.9390  -0.0702   0.0514   0.2536
     0.9876   1.5875   2.2039   2.7076

          k = 0.1787 0.3095 0.1207 (  8578 PWs)   bands (ev):

    -6.8440  -5.7939  -4.9983  -4.6242  -0.8208  -0.2833   0.1009   0.4003
     1.0422   1.3983   2.2921   2.5082

          k = 0.1787 0.3095 0.2415 (  8575 PWs)   bands (ev):

    -6.6936  -6.1405  -4.7886  -4.6294  -0.4970  -0.3692  -0.1582   0.6552
     0.9023   1.4665   2.1161   2.1565

          k = 0.1787 0.3095-0.3622 (  8558 PWs)   bands (ev):

    -6.4530  -6.4530  -4.6713  -4.6713  -0.3510  -0.3510   0.0612   0.0612
     1.4399   1.4399   1.8555   1.8555

          k = 0.1787 0.5158-0.0000 (  8589 PWs)   bands (ev):

    -6.3931  -5.6321  -5.1996  -5.0443  -1.2487  -0.5067  -0.4501   0.2378
     0.5428   1.7181   2.5801   2.6637

          k = 0.1787 0.5158 0.1207 (  8580 PWs)   bands (ev):

    -6.3487  -5.6790  -5.2149  -5.0630  -1.0732  -0.7355  -0.1849  -0.0198
     0.9859   1.5292   2.1054   2.9676

          k = 0.1787 0.5158 0.2415 (  8559 PWs)   bands (ev):

    -6.2217  -5.8275  -5.2140  -5.1112  -0.8426  -0.7035  -0.3643   0.3913
     0.9554   1.5301   1.6753   2.8892

          k = 0.1787 0.5158-0.3622 (  8546 PWs)   bands (ev):

    -6.0328  -6.0328  -5.1706  -5.1706  -0.7882  -0.7882   0.1753   0.1753
     0.9978   0.9978   2.2822   2.2822

          k = 0.3573 0.6189-0.0000 (  8538 PWs)   bands (ev):

    -5.9994  -5.6393  -5.6393  -4.9960  -1.1684  -0.4213  -0.4213  -0.2124
    -0.2124   2.0694   3.2948   3.5798

          k = 0.3573 0.6189 0.1207 (  8568 PWs)   bands (ev):

    -5.9500  -5.6371  -5.6371  -5.0929  -0.9635  -0.7445  -0.7445   0.2363
     0.2363   1.8195   2.9535   2.9536

          k = 0.3573 0.6189 0.2415 (  8562 PWs)   bands (ev):

    -5.8064  -5.6326  -5.6326  -5.3239  -1.0025  -1.0025  -0.4168   0.8658
     0.8659   1.1550   2.2680   2.2680

          k = 0.3573 0.6189-0.3622 (  8586 PWs)   bands (ev):

    -5.6303  -5.6303  -5.5855  -5.5855  -1.0916  -1.0916   0.3383   0.3383
     1.5280   1.5280   1.5865   1.5865

     the Fermi energy is     0.7114 ev

!    total energy              =     -33.15466063 Ry
     estimated scf accuracy    <          9.6E-10 Ry
     smearing contrib. (-TS)   =       0.00113452 Ry
     internal energy E=F+TS    =     -33.15579515 Ry

     The total energy is F=E-TS. E is the sum of the following terms:
     one-electron contribution =       2.40624593 Ry
     hartree contribution      =       2.55772487 Ry
     xc contribution           =     -10.82993470 Ry
     ewald contribution        =     -27.28983126 Ry

     convergence has been achieved in   5 iterations

     Forces acting on atoms (cartesian axes, Ry/au):

     atom    1 type  1   force =     0.00000000   -0.00000000    0.00000000
     atom    2 type  1   force =    -0.00000000   -0.00000000    0.00000000
     atom    3 type  1   force =     0.00000000   -0.00000000   -0.00000000
     atom    4 type  1   force =     0.00000000    0.00000000    0.00000000

     Total force =     0.000000     Total SCF correction =     0.000000


     Computing stress (Cartesian axis) and pressure

          total   stress  (Ry/bohr**3)                   (kbar)     P=     -102.02
  -0.00065432   0.00000000  -0.00000000          -96.25        0.00       -0.00
   0.00000000  -0.00065432   0.00000000            0.00      -96.25        0.00
   0.00000000  -0.00000000  -0.00077194            0.00       -0.00     -113.56

     Energy error            =      3.9E-02 Ry
     Gradient error          =      1.1E-22 Ry/Bohr
     Cell gradient error     =      1.1E+02 kbar

     number of scf cycles    =   5
     number of bfgs steps    =   4

     enthalpy           old  =     -33.1151651066 Ry
     enthalpy           new  =     -33.1546606303 Ry

     CASE: enthalpy          _new < enthalpy          _old


     WARNING: bfgs curvature condition failed, Theta= 0.779
     new trust radius        =       0.1891342088 bohr
     new conv_thr            =       0.0000000100 Ry

     new unit-cell volume =   1066.28498 a.u.^3 (   158.00713 Ang^3 )
     density =      1.18063 g/cm^3

CELL_PARAMETERS (alat= 10.34040509)
   0.910990868  -0.000000000  -0.000000000
  -0.455495434   0.788941234  -0.000000000
   0.000000000   0.000000000   1.341843770

ATOMIC_POSITIONS (crystal)
Si              -0.0000000000       -0.0000000000        0.0000000000
Si               0.3333330000        0.6666670000        0.2500000000
Si               0.0000000000        0.0000000000        0.5000000000
Si               0.6666670000        0.3333330000        0.7500000000



     Writing config-only to output data dir ./tmp/si.dhcp-relax.save/ :
     XML data file
     NEW-OLD atomic charge density approx. for the potential
     New effective cutoffs (rho, wfc):  248.82   62.42

     total cpu time spent up to now is      196.0 secs

     Self-consistent Calculation

     iteration #  1     ecut=    50.00 Ry     beta= 0.70
     Davidson diagonalization with overlap
     ethr =  1.00E-06,  avg # of iterations =  8.5

     total cpu time spent up to now is      208.3 secs

     total energy              =     -33.21565410 Ry
     estimated scf accuracy    <       0.00004430 Ry

     iteration #  2     ecut=    50.00 Ry     beta= 0.70
     Davidson diagonalization with overlap
     ethr =  2.77E-07,  avg # of iterations =  2.3

     total cpu time spent up to now is      213.2 secs

     total energy              =     -33.21566106 Ry
     estimated scf accuracy    <       0.00000182 Ry

     iteration #  3     ecut=    50.00 Ry     beta= 0.70
     Davidson diagonalization with overlap
     ethr =  1.14E-08,  avg # of iterations =  4.4

     total cpu time spent up to now is      218.8 secs

     total energy              =     -33.21566216 Ry
     estimated scf accuracy    <       0.00000010 Ry

     iteration #  4     ecut=    50.00 Ry     beta= 0.70
     Davidson diagonalization with overlap
     ethr =  6.30E-10,  avg # of iterations =  4.1

     total cpu time spent up to now is      224.3 secs

     End of self-consistent calculation

          k = 0.0000 0.0000 0.0000 (  8597 PWs)   bands (ev):

    -7.1652  -5.3041  -4.9951  -3.0735   0.6509   0.6509   1.0611   1.6149
     1.6149   2.0125   2.0233   2.4663

          k = 0.0000 0.0000 0.1242 (  8603 PWs)   bands (ev):

    -7.1041  -5.7339  -4.5404  -3.1171   0.6979   0.6979   1.0027   1.5150
     1.5152   1.8427   2.2088   2.5505

          k = 0.0000 0.0000 0.2484 (  8573 PWs)   bands (ev):

    -6.9224  -6.2221  -3.9977  -3.2658   0.8339   0.8339   0.9739   1.2901
     1.2901   1.4573   2.6656   2.7594

          k =-0.0000-0.0000-0.3726 (  8650 PWs)   bands (ev):

    -6.6250  -6.6250  -3.5562  -3.5562   1.0425   1.0425   1.0425   1.0425
     1.1219   1.1219   3.0469   3.0469

          k = 0.0000 0.2113-0.0000 (  8580 PWs)   bands (ev):

    -7.0024  -5.2434  -4.9024  -3.5074   0.0212   0.3184   0.9498   1.0280
     1.8106   2.0109   2.3377   2.5859

          k = 0.0000 0.2113 0.1242 (  8572 PWs)   bands (ev):

    -6.9426  -5.6250  -4.5221  -3.5248   0.0301   0.3742   0.7947   1.2316
     1.5456   1.9599   2.4044   2.6002

          k = 0.0000 0.2113 0.2484 (  8615 PWs)   bands (ev):

    -6.7651  -6.0874  -4.0821  -3.5958   0.1062   0.5390   0.5844   1.1526
     1.4353   1.9776   2.1446   3.0300

          k = 0.0000 0.2113-0.3726 (  8572 PWs)   bands (ev):

    -6.4759  -6.4759  -3.7678  -3.7678   0.3105   0.3105   0.8043   0.8043
     1.6704   1.6704   2.5168   2.5168

          k = 0.0000 0.4225-0.0000 (  8552 PWs)   bands (ev):

    -6.5419  -5.1909  -4.6919  -4.3096  -0.8281  -0.0862  -0.0377   1.5064
     1.8580   1.9614   2.1158   2.3373

          k = 0.0000 0.4225 0.1242 (  8578 PWs)   bands (ev):

    -6.4867  -5.3905  -4.5783  -4.2931  -0.7161  -0.0245   0.0401   1.2184
     1.3807   1.9837   2.5189   2.6411

          k = 0.0000 0.4225 0.2484 (  8581 PWs)   bands (ev):

    -6.3246  -5.7376  -4.4350  -4.2838  -0.4074   0.1594   0.1870   0.8736
     0.8788   1.6658   2.8011   3.2769

          k = 0.0000 0.4225-0.3726 (  8594 PWs)   bands (ev):

    -6.0667  -6.0667  -4.3326  -4.3326  -0.0129  -0.0129   0.4614   0.4614
     1.1024   1.1024   3.2291   3.2291

          k =-0.0000-0.6338 0.0000 (  8532 PWs)   bands (ev):

    -6.0617  -5.4749  -4.6035  -4.5699  -1.1493  -0.4336  -0.2376   1.8228
     1.8445   1.8760   1.9244   2.0179

          k =-0.0000-0.6338 0.1242 (  8588 PWs)   bands (ev):

    -6.0140  -5.4832  -4.6476  -4.6376  -0.9304  -0.3734  -0.1744   1.2759
     1.2850   1.8334   2.5672   2.6229

          k =-0.0000-0.6338 0.2484 (  8592 PWs)   bands (ev):

    -5.8804  -5.5433  -4.7718  -4.7190  -0.3973  -0.2073   0.0142   0.7525
     0.8124   1.4656   3.2526   3.3416

          k =-0.0000-0.6338-0.3726 (  8596 PWs)   bands (ev):

    -5.6970  -5.6970  -4.7907  -4.7907  -0.0463  -0.0463   0.3252   0.3252
     0.8360   0.8360   3.5309   3.5309

          k = 0.1830 0.3169-0.0000 (  8591 PWs)   bands (ev):

    -6.6882  -5.1639  -4.7488  -4.1338  -0.7027   0.2796   0.3871   0.6341
     1.3927   2.0957   2.7434   3.2803

          k = 0.1830 0.3169 0.1242 (  8578 PWs)   bands (ev):

    -6.6313  -5.4395  -4.5261  -4.1278  -0.5737   0.0206   0.4514   0.7928
     1.4815   1.8717   2.8313   3.0620

          k = 0.1830 0.3169 0.2484 (  8575 PWs)   bands (ev):

    -6.4632  -5.8384  -4.2827  -4.1229  -0.2200  -0.0810   0.1518   1.0728
     1.3494   1.9268   2.6696   2.6782

          k = 0.1830 0.3169-0.3726 (  8558 PWs)   bands (ev):

    -6.1928  -6.1928  -4.1571  -4.1571  -0.0671  -0.0671   0.4063   0.4063
     1.9322   1.9322   2.3556   2.3556

          k = 0.1830 0.5281-0.0000 (  8589 PWs)   bands (ev):

    -6.1330  -5.2560  -4.7719  -4.5728  -1.0402  -0.2267  -0.1680   0.6063
     0.9029   2.2555   3.1412   3.2535

          k = 0.1830 0.5281 0.1242 (  8580 PWs)   bands (ev):

    -6.0825  -5.3074  -4.7955  -4.5997  -0.8343  -0.4865   0.1309   0.3078
     1.4083   2.0611   2.6352   3.5645

          k = 0.1830 0.5281 0.2484 (  8559 PWs)   bands (ev):

    -5.9371  -5.4790  -4.7987  -4.6649  -0.6045  -0.4178  -0.0670   0.7757
     1.4338   2.0030   2.1811   3.4932

          k = 0.1830 0.5281-0.3726 (  8546 PWs)   bands (ev):

    -5.7189  -5.7189  -4.7428  -4.7428  -0.5399  -0.5399   0.5693   0.5693
     1.4363   1.4363   2.8318   2.8318

          k = 0.3659 0.6338-0.0000 (  8538 PWs)   bands (ev):

    -5.7063  -5.2618  -5.2618  -4.5104  -0.9518  -0.1250  -0.1250   0.0819
     0.0819   2.6861   3.9657   4.2611

          k = 0.3659 0.6338 0.1242 (  8568 PWs)   bands (ev):

    -5.6500  -5.2584  -5.2584  -4.6340  -0.7108  -0.4935  -0.4935   0.5873
     0.5873   2.4193   3.5707   3.5707

          k = 0.3659 0.6338 0.2484 (  8562 PWs)   bands (ev):

    -5.4856  -5.2516  -5.2516  -4.9186  -0.7821  -0.7821  -0.0820   1.2814
     1.2814   1.6831   2.8228   2.8228

          k = 0.3659 0.6338-0.3726 (  8586 PWs)   bands (ev):

    -5.2482  -5.2482  -5.2293  -5.2293  -0.8819  -0.8819   0.7696   0.7696
     1.9893   1.9893   2.0958   2.0958

     the Fermi energy is     1.1217 ev

!    total energy              =     -33.21566220 Ry
     estimated scf accuracy    <          9.9E-09 Ry
     smearing contrib. (-TS)   =       0.00138420 Ry
     internal energy E=F+TS    =     -33.21704640 Ry

     The total energy is F=E-TS. E is the sum of the following terms:
     one-electron contribution =       3.30505527 Ry
     hartree contribution      =       2.36221914 Ry
     xc contribution           =     -10.90168313 Ry
     ewald contribution        =     -27.98263768 Ry

     convergence has been achieved in   4 iterations

     Forces acting on atoms (cartesian axes, Ry/au):

     atom    1 type  1   force =    -0.00000000   -0.00000000    0.00000000
     atom    2 type  1   force =    -0.00000000   -0.00000000    0.00000000
     atom    3 type  1   force =     0.00000000    0.00000000   -0.00000000
     atom    4 type  1   force =     0.00000000    0.00000000   -0.00000000

     Total force =     0.000000     Total SCF correction =     0.000000


     Computing stress (Cartesian axis) and pressure

          total   stress  (Ry/bohr**3)                   (kbar)     P=     -111.03
  -0.00071576   0.00000000  -0.00000000         -105.29        0.00       -0.00
   0.00000000  -0.00071576  -0.00000000            0.00     -105.29       -0.00
   0.00000000   0.00000000  -0.00083275            0.00        0.00     -122.50

     Energy error            =      6.1E-02 Ry
     Gradient error          =      1.9E-22 Ry/Bohr
     Cell gradient error     =      1.2E+02 kbar

     number of scf cycles    =   6
     number of bfgs steps    =   5

     enthalpy           old  =     -33.1546606303 Ry
     enthalpy           new  =     -33.2156622042 Ry

     CASE: enthalpy          _new < enthalpy          _old


     WARNING: bfgs curvature condition failed, Theta= 0.442
     new trust radius        =       0.2810164558 bohr
     new conv_thr            =       0.0000000100 Ry

     new unit-cell volume =    949.18768 a.u.^3 (   140.65510 Ang^3 )
     density =      1.32628 g/cm^3

CELL_PARAMETERS (alat= 10.34040509)
   0.878626146  -0.000000000  -0.000000000
  -0.439313073   0.760912563  -0.000000000
   0.000000000   0.000000000   1.284105062

ATOMIC_POSITIONS (crystal)
Si              -0.0000000000       -0.0000000000        0.0000000000
Si               0.3333330000        0.6666670000        0.2500000000
Si               0.0000000000        0.0000000000        0.5000000000
Si               0.6666670000        0.3333330000        0.7500000000



     Writing config-only to output data dir ./tmp/si.dhcp-relax.save/ :
     XML data file
     NEW-OLD atomic charge density approx. for the potential
     New effective cutoffs (rho, wfc):  271.26   68.14

     total cpu time spent up to now is      230.2 secs

     Self-consistent Calculation

     iteration #  1     ecut=    50.00 Ry     beta= 0.70
     Davidson diagonalization with overlap
     c_bands:  1 eigenvalues not converged
     ethr =  1.00E-06,  avg # of iterations = 10.4

     total cpu time spent up to now is      243.3 secs

     total energy              =     -33.30984765 Ry
     estimated scf accuracy    <       0.00012638 Ry

     iteration #  2     ecut=    50.00 Ry     beta= 0.70
     Davidson diagonalization with overlap
     ethr =  7.90E-07,  avg # of iterations =  1.8

     total cpu time spent up to now is      247.1 secs

     total energy              =     -33.30985889 Ry
     estimated scf accuracy    <       0.00000615 Ry

     iteration #  3     ecut=    50.00 Ry     beta= 0.70
     Davidson diagonalization with overlap
     ethr =  3.84E-08,  avg # of iterations =  3.2

     total cpu time spent up to now is      252.1 secs

     total energy              =     -33.30986086 Ry
     estimated scf accuracy    <       0.00000049 Ry

     iteration #  4     ecut=    50.00 Ry     beta= 0.70
     Davidson diagonalization with overlap
     ethr =  3.07E-09,  avg # of iterations =  3.6

     total cpu time spent up to now is      257.3 secs

     total energy              =     -33.30986110 Ry
     estimated scf accuracy    <       0.00000019 Ry

     iteration #  5     ecut=    50.00 Ry     beta= 0.70
     Davidson diagonalization with overlap
     ethr =  1.20E-09,  avg # of iterations =  2.1

     total cpu time spent up to now is      261.4 secs

     End of self-consistent calculation

          k = 0.0000 0.0000 0.0000 (  8597 PWs)   bands (ev):

    -6.9038  -4.7053  -4.3696  -1.9301   1.2271   1.2271   1.8209   2.2802
     2.2802   2.8977   3.0009   3.3034

          k = 0.0000 0.0000 0.1298 (  8603 PWs)   bands (ev):

    -6.8336  -5.2332  -3.7942  -1.9796   1.2805   1.2805   1.7397   2.1822
     2.1824   2.6585   3.2101   3.3707

          k = 0.0000 0.0000 0.2596 (  8573 PWs)   bands (ev):

    -6.6242  -5.8102  -3.1038  -2.1588   1.4349   1.4349   1.6642   1.9447
     1.9447   2.1733   3.5654   3.5654

          k =-0.0000-0.0000-0.3894 (  8650 PWs)   bands (ev):

    -6.2800  -6.2800  -2.5306  -2.5306   1.6703   1.6703   1.6703   1.6703
     1.7910   1.7910   3.8708   3.8708

          k = 0.0000 0.2190-0.0000 (  8580 PWs)   bands (ev):

    -6.7187  -4.6230  -4.2475  -2.5414   0.5677   0.8418   1.6809   1.7743
     2.5259   2.8636   3.1414   3.4599

          k = 0.0000 0.2190 0.1298 (  8572 PWs)   bands (ev):

    -6.6496  -5.0986  -3.7572  -2.5524   0.5597   0.9049   1.4909   1.9912
     2.2311   2.7896   3.2608   3.4264

          k = 0.0000 0.2190 0.2596 (  8615 PWs)   bands (ev):

    -6.4440  -5.6507  -3.1962  -2.6142   0.6137   1.0913   1.2084   1.7867
     2.1694   2.7938   2.9890   3.9704

          k = 0.0000 0.2190-0.3894 (  8572 PWs)   bands (ev):

    -6.1073  -6.1073  -2.8052  -2.8052   0.8475   0.8475   1.3918   1.3918
     2.4214   2.4214   3.4191   3.4191

          k = 0.0000 0.4381-0.0000 (  8552 PWs)   bands (ev):

    -6.1913  -4.5515  -3.9597  -3.5438  -0.4157   0.3850   0.4984   2.3546
     2.5839   2.7649   2.8697   3.1645

          k = 0.0000 0.4381 0.1298 (  8578 PWs)   bands (ev):

    -6.1264  -4.8027  -3.8346  -3.5003  -0.2980   0.4541   0.6087   1.9816
     2.0381   2.8051   3.4408   3.4753

          k = 0.0000 0.4381 0.2596 (  8581 PWs)   bands (ev):

    -5.9350  -5.2305  -3.6763  -3.4702   0.0588   0.6603   0.8200   1.4641
     1.5409   2.4892   3.7168   4.2093

          k = 0.0000 0.4381-0.3894 (  8594 PWs)   bands (ev):

    -5.6280  -5.6280  -3.5426  -3.5426   0.5530   0.5530   0.9996   0.9996
     1.8169   1.8169   4.1972   4.1972

          k =-0.0000-0.6571 0.0000 (  8532 PWs)   bands (ev):

    -5.6319  -4.9360  -3.8321  -3.7829  -0.8044   0.0072   0.2157   2.5405
     2.6360   2.7030   2.7310   2.7523

          k =-0.0000-0.6571 0.1298 (  8588 PWs)   bands (ev):

    -5.5741  -4.9384  -3.9108  -3.8864  -0.5138   0.0903   0.2863   1.9264
     2.0157   2.6440   3.4496   3.4941

          k =-0.0000-0.6571 0.2596 (  8592 PWs)   bands (ev):

    -5.4105  -4.9968  -4.1063  -4.0146   0.1681   0.3167   0.4972   1.3256
     1.4651   2.3066   4.2533   4.2825

          k =-0.0000-0.6571-0.3894 (  8596 PWs)   bands (ev):

    -5.1831  -5.1831  -4.1295  -4.1295   0.5668   0.5668   0.8456   0.8456
     1.5251   1.5251   4.3981   4.3981

          k = 0.1897 0.3286-0.0000 (  8591 PWs)   bands (ev):

    -6.3597  -4.5121  -4.0395  -3.3430  -0.3012   0.8873   0.9586   1.2928
     2.0704   2.9676   3.6567   4.2442

          k = 0.1897 0.3286 0.1298 (  8578 PWs)   bands (ev):

    -6.2933  -4.8655  -3.7446  -3.3276  -0.1545   0.5382   1.0510   1.4694
     2.2292   2.6848   3.7328   3.9933

          k = 0.1897 0.3286 0.2596 (  8575 PWs)   bands (ev):

    -6.0962  -5.3532  -3.4423  -3.2987   0.2488   0.4079   0.6776   1.7983
     2.1162   2.7010   3.5550   3.6054

          k = 0.1897 0.3286-0.3894 (  8558 PWs)   bands (ev):

    -5.7769  -5.7769  -3.3098  -3.3098   0.4115   0.4115   0.9999   0.9999
     2.7693   2.7693   3.1974   3.1974

          k = 0.1897 0.5476-0.0000 (  8589 PWs)   bands (ev):

    -5.7198  -4.6493  -4.0728  -3.7887  -0.6847   0.2514   0.3124   1.2375
     1.5088   3.1550   4.0827   4.2499

          k = 0.1897 0.5476 0.1298 (  8580 PWs)   bands (ev):

    -5.6591  -4.7052  -4.1166  -3.8349  -0.4185  -0.0656   0.6708   0.8657
     2.1234   2.9706   3.5254   4.5550

          k = 0.1897 0.5476 0.2596 (  8559 PWs)   bands (ev):

    -5.4832  -4.9149  -4.1312  -3.9357  -0.2032   0.0775   0.4467   1.4361
     2.2612   2.8039   3.0455   4.4450

          k = 0.1897 0.5476-0.3894 (  8546 PWs)   bands (ev):

    -5.2152  -5.2152  -4.0507  -4.0507  -0.1190  -0.1190   1.2584   1.2584
     2.1848   2.1848   3.7612   3.7612

          k = 0.3794 0.6571-0.0000 (  8538 PWs)   bands (ev):

    -5.2414  -4.6501  -4.6501  -3.6970  -0.5831   0.3855   0.3855   0.5788
     0.5789   3.7415   5.1090   5.3968

          k = 0.3794 0.6571 0.1298 (  8568 PWs)   bands (ev):

    -5.1741  -4.6439  -4.6439  -3.8774  -0.2695  -0.0667  -0.0667   1.1857
     1.1857   3.4580   4.6137   4.6137

          k = 0.3794 0.6571 0.2596 (  8562 PWs)   bands (ev):

    -4.9758  -4.6313  -4.6313  -4.2643  -0.4096  -0.4096   0.5092   1.9885
     1.9886   2.6043   3.7663   3.7663

          k = 0.3794 0.6571-0.3894 (  8586 PWs)   bands (ev):

    -4.6606  -4.6606  -4.6249  -4.6249  -0.5286  -0.5286   1.5262   1.5262
     2.7672   2.7672   2.9707   2.9707

     the Fermi energy is     1.8250 ev

!    total energy              =     -33.30986113 Ry
     estimated scf accuracy    <          6.5E-09 Ry
     smearing contrib. (-TS)   =       0.00150252 Ry
     internal energy E=F+TS    =     -33.31136365 Ry

     The total energy is F=E-TS. E is the sum of the following terms:
     one-electron contribution =       4.71660964 Ry
     hartree contribution      =       2.08305987 Ry
     xc contribution           =     -11.02810074 Ry
     ewald contribution        =     -29.08293241 Ry

     convergence has been achieved in   5 iterations

     Forces acting on atoms (cartesian axes, Ry/au):

     atom    1 type  1   force =    -0.00000000    0.00000000   -0.00000000
     atom    2 type  1   force =     0.00000000    0.00000000   -0.00000000
     atom    3 type  1   force =     0.00000000   -0.00000000   -0.00000000
     atom    4 type  1   force =     0.00000000    0.00000000    0.00000000

     Total force =     0.000000     Total SCF correction =     0.000000


     Computing stress (Cartesian axis) and pressure

          total   stress  (Ry/bohr**3)                   (kbar)     P=     -124.21
  -0.00081118  -0.00000000  -0.00000000         -119.33       -0.00       -0.00
  -0.00000000  -0.00081118  -0.00000000           -0.00     -119.33       -0.00
  -0.00000000  -0.00000000  -0.00091067           -0.00       -0.00     -133.96

     Energy error            =      9.4E-02 Ry
     Gradient error          =      4.6E-23 Ry/Bohr
     Cell gradient error     =      1.3E+02 kbar

     number of scf cycles    =   7
     number of bfgs steps    =   6

     enthalpy           old  =     -33.2156622042 Ry
     enthalpy           new  =     -33.3098611304 Ry

     CASE: enthalpy          _new < enthalpy          _old


     WARNING: bfgs curvature condition failed, Theta= 0.680
     uphill step: resetting bfgs history

     new trust radius        =       0.1402840069 bohr
     new conv_thr            =       0.0000000100 Ry

     new unit-cell volume =    890.33746 a.u.^3 (   131.93440 Ang^3 )
     density =      1.41395 g/cm^3

CELL_PARAMETERS (alat= 10.34040509)
   0.860807998  -0.000000000  -0.000000000
  -0.430403999   0.745481594  -0.000000000
   0.000000000   0.000000000   1.254870090

ATOMIC_POSITIONS (crystal)
Si              -0.0000000000       -0.0000000000        0.0000000000
Si               0.3333330000        0.6666670000        0.2500000000
Si               0.0000000000        0.0000000000        0.5000000000
Si               0.6666670000        0.3333330000        0.7500000000



     Writing config-only to output data dir ./tmp/si.dhcp-relax.save/ :
     XML data file
     NEW-OLD atomic charge density approx. for the potential
     New effective cutoffs (rho, wfc):  283.91   71.35

     total cpu time spent up to now is      266.4 secs

     Self-consistent Calculation

     iteration #  1     ecut=    50.00 Ry     beta= 0.70
     Davidson diagonalization with overlap
     ethr =  1.00E-06,  avg # of iterations =  8.5

     total cpu time spent up to now is      276.8 secs

     total energy              =     -33.36100301 Ry
     estimated scf accuracy    <       0.00004482 Ry

     iteration #  2     ecut=    50.00 Ry     beta= 0.70
     Davidson diagonalization with overlap
     ethr =  2.80E-07,  avg # of iterations =  2.2

     total cpu time spent up to now is      280.7 secs

     total energy              =     -33.36100854 Ry
     estimated scf accuracy    <       0.00000232 Ry

     iteration #  3     ecut=    50.00 Ry     beta= 0.70
     Davidson diagonalization with overlap
     ethr =  1.45E-08,  avg # of iterations =  3.5

     total cpu time spent up to now is      285.6 secs

     total energy              =     -33.36100940 Ry
     estimated scf accuracy    <       0.00000014 Ry

     iteration #  4     ecut=    50.00 Ry     beta= 0.70
     Davidson diagonalization with overlap
     ethr =  8.73E-10,  avg # of iterations =  4.2

     total cpu time spent up to now is      290.7 secs

     total energy              =     -33.36100948 Ry
     estimated scf accuracy    <       0.00000005 Ry

     iteration #  5     ecut=    50.00 Ry     beta= 0.70
     Davidson diagonalization with overlap
     ethr =  2.94E-10,  avg # of iterations =  2.8

     total cpu time spent up to now is      295.0 secs

     End of self-consistent calculation

          k = 0.0000 0.0000 0.0000 (  8597 PWs)   bands (ev):

    -6.7541  -4.3648  -4.0180  -1.2389   1.5765   1.5766   2.3014   2.6782
     2.6782   3.4151   3.6202   3.8018

          k = 0.0000 0.0000 0.1328 (  8603 PWs)   bands (ev):

    -6.6788  -4.9502  -3.3694  -1.2918   1.6336   1.6336   2.2058   2.5817
     2.5818   3.1377   3.8334   3.8568

          k = 0.0000 0.0000 0.2656 (  8573 PWs)   bands (ev):

    -6.4541  -5.5770  -2.5859  -1.4919   1.7984   1.7984   2.0957   2.3383
     2.3384   2.5940   4.0389   4.0389

          k =-0.0000-0.0000-0.3984 (  8650 PWs)   bands (ev):

    -6.0841  -6.0841  -1.9222  -1.9222   2.0491   2.0491   2.0491   2.0491
     2.1956   2.1956   4.3522   4.3522

          k = 0.0000 0.2236-0.0000 (  8580 PWs)   bands (ev):

    -6.5562  -4.2681  -3.8778  -1.9802   0.9101   1.1594   2.1272   2.2464
     2.9536   3.3693   3.6178   3.9913

          k = 0.0000 0.2236 0.1328 (  8572 PWs)   bands (ev):

    -6.4819  -4.8002  -3.3181  -1.9854   0.8880   1.2265   1.9268   2.4517
     2.6412   3.2859   3.7812   3.9152

          k = 0.0000 0.2236 0.2656 (  8615 PWs)   bands (ev):

    -6.2608  -5.4032  -2.6782  -2.0367   0.9194   1.4251   1.5916   2.1672
     2.6054   3.2873   3.5031   4.3693

          k = 0.0000 0.2236-0.3984 (  8572 PWs)   bands (ev):

    -5.8977  -5.8977  -2.2363  -2.2363   1.1675   1.1675   1.7457   1.7457
     2.8737   2.8737   3.9617   3.9617

          k = 0.0000 0.4471-0.0000 (  8552 PWs)   bands (ev):

    -5.9902  -4.1820  -3.5393  -3.1031  -0.1580   0.6718   0.8233   2.8736
     3.0154   3.2443   3.3147   3.6525

          k = 0.0000 0.4471 0.1328 (  8578 PWs)   bands (ev):

    -5.9200  -4.4653  -3.4121  -3.0349  -0.0437   0.7451   0.9578   2.4295
     2.4451   3.2940   3.9676   3.9943

          k = 0.0000 0.4471 0.2656 (  8581 PWs)   bands (ev):

    -5.7123  -4.9410  -3.2449  -2.9919   0.3390   0.9637   1.2163   1.8177
     1.9361   2.9841   4.2553   4.7593

          k = 0.0000 0.4471-0.3984 (  8594 PWs)   bands (ev):

    -5.3777  -5.3777  -3.0865  -3.0865   0.9004   0.9004   1.3238   1.3238
     2.2450   2.2450   4.7717   4.7717

          k =-0.0000-0.6707 0.0000 (  8532 PWs)   bands (ev):

    -5.3844  -4.6288  -3.3763  -3.3234  -0.5949   0.2685   0.4920   2.9659
     3.0727   3.1698   3.1853   3.2745

          k =-0.0000-0.6707 0.1328 (  8588 PWs)   bands (ev):

    -5.3209  -4.6270  -3.4886  -3.4457  -0.2548   0.3687   0.5667   2.3079
     2.4641   3.1126   3.9362   4.0558

          k =-0.0000-0.6707 0.2656 (  8592 PWs)   bands (ev):

    -5.1405  -4.6825  -3.7316  -3.6083   0.5218   0.6378   0.7901   1.6687
     1.8593   2.8105   4.8358   4.8498

          k =-0.0000-0.6707-0.3984 (  8596 PWs)   bands (ev):

    -4.8875  -4.8875  -3.7545  -3.7545   0.9481   0.9481   1.1593   1.1593
     1.9380   1.9380   4.8942   4.8942

          k = 0.1936 0.3354-0.0000 (  8591 PWs)   bands (ev):

    -6.1714  -4.1352  -3.6347  -2.8893  -0.0556   1.2593   1.3089   1.6988
     2.4693   3.4982   4.1978   4.8269

          k = 0.1936 0.3354 0.1328 (  8578 PWs)   bands (ev):

    -6.0996  -4.5375  -3.2908  -2.8676   0.0996   0.8530   1.4151   1.8837
     2.6806   3.1751   4.2659   4.5562

          k = 0.1936 0.3354 0.2656 (  8575 PWs)   bands (ev):

    -5.8866  -5.0770  -2.9498  -2.8218   0.5277   0.7053   0.9946   2.2400
     2.5820   3.1651   4.0849   4.1627

          k = 0.1936 0.3354-0.3984 (  8558 PWs)   bands (ev):

    -5.5400  -5.5400  -2.8152  -2.8152   0.6985   0.6985   1.3580   1.3580
     3.2738   3.2738   3.7039   3.7039

          k = 0.1936 0.5589-0.0000 (  8589 PWs)   bands (ev):

    -5.4824  -4.3013  -3.6648  -3.3319  -0.4687   0.5372   0.6056   1.6202
     1.8681   3.6857   4.6402   4.8505

          k = 0.1936 0.5589 0.1328 (  8580 PWs)   bands (ev):

    -5.4161  -4.3585  -3.7250  -3.3908  -0.1624   0.1872   0.9975   1.2027
     2.5503   3.5149   4.0553   5.1298

          k = 0.1936 0.5589 0.2656 (  8559 PWs)   bands (ev):

    -5.2231  -4.5906  -3.7495  -3.5136   0.0380   0.3785   0.7606   1.8370
     2.7564   3.2851   3.5653   4.9509

          k = 0.1936 0.5589-0.3984 (  8546 PWs)   bands (ev):

    -4.9266  -4.9266  -3.6525  -3.6525   0.1353   0.1353   1.6767   1.6767
     2.6358   2.6358   4.3160   4.3160

          k = 0.3872 0.6707-0.0000 (  8538 PWs)   bands (ev):

    -4.9734  -4.2974  -4.2974  -3.2186  -0.3592   0.6968   0.6968   0.8729
     0.8729   4.3819   5.7789   6.0619

          k = 0.3872 0.6707 0.1328 (  8568 PWs)   bands (ev):

    -4.9001  -4.2890  -4.2890  -3.4394   0.0036   0.1904   0.1904   1.5440
     1.5440   4.0888   5.2360   5.2361

          k = 0.3872 0.6707 0.2656 (  8562 PWs)   bands (ev):

    -4.6833  -4.2719  -4.2719  -3.8904  -0.1858  -0.1857   0.8735   2.4105
     2.4105   3.1604   4.3313   4.3313

          k = 0.3872 0.6707-0.3984 (  8586 PWs)   bands (ev):

    -4.3358  -4.3358  -4.2631  -4.2631  -0.3167  -0.3167   1.9855   1.9855
     3.2270   3.2270   3.4990   3.4990

     the Fermi energy is     2.2540 ev

!    total energy              =     -33.36100949 Ry
     estimated scf accuracy    <          2.1E-09 Ry
     smearing contrib. (-TS)   =       0.00123538 Ry
     internal energy E=F+TS    =     -33.36224487 Ry

     The total energy is F=E-TS. E is the sum of the following terms:
     one-electron contribution =       5.51294283 Ry
     hartree contribution      =       1.93905520 Ry
     xc contribution           =     -11.10617418 Ry
     ewald contribution        =     -29.70806872 Ry

     convergence has been achieved in   5 iterations

     Forces acting on atoms (cartesian axes, Ry/au):

     atom    1 type  1   force =     0.00000000    0.00000000    0.00000000
     atom    2 type  1   force =    -0.00000000   -0.00000000    0.00000000
     atom    3 type  1   force =    -0.00000000   -0.00000000   -0.00000000
     atom    4 type  1   force =     0.00000000    0.00000000   -0.00000000

     Total force =     0.000000     Total SCF correction =     0.000000


     Computing stress (Cartesian axis) and pressure

          total   stress  (Ry/bohr**3)                   (kbar)     P=     -130.72
  -0.00086133  -0.00000000   0.00000000         -126.71       -0.00        0.00
  -0.00000000  -0.00086133   0.00000000           -0.00     -126.71        0.00
  -0.00000000  -0.00000000  -0.00094322           -0.00       -0.00     -138.75

     Energy error            =      5.1E-02 Ry
     Gradient error          =      7.1E-23 Ry/Bohr
     Cell gradient error     =      1.4E+02 kbar

     number of scf cycles    =   8
     number of bfgs steps    =   7

     enthalpy           old  =     -33.3098611304 Ry
     enthalpy           new  =     -33.3610094926 Ry

     CASE: enthalpy          _new < enthalpy          _old


     WARNING: bfgs curvature condition failed, Theta= 0.794
     new trust radius        =       0.2085462989 bohr
     new conv_thr            =       0.0000000100 Ry

     new unit-cell volume =    806.89994 a.u.^3 (   119.57024 Ang^3 )
     density =      1.56016 g/cm^3

CELL_PARAMETERS (alat= 10.34040509)
   0.834186130  -0.000000000  -0.000000000
  -0.417093065   0.722426380  -0.000000000
   0.000000000  -0.000000000   1.211017633

ATOMIC_POSITIONS (crystal)
Si              -0.0000000000       -0.0000000000       -0.0000000000
Si               0.3333330000        0.6666670000        0.2500000000
Si               0.0000000000        0.0000000000        0.5000000000
Si               0.6666670000        0.3333330000        0.7500000000



     Writing config-only to output data dir ./tmp/si.dhcp-relax.save/ :
     XML data file
     NEW-OLD atomic charge density approx. for the potential
     New effective cutoffs (rho, wfc):  304.59   76.60

     total cpu time spent up to now is      299.9 secs

     Self-consistent Calculation

     iteration #  1     ecut=    50.00 Ry     beta= 0.70
     Davidson diagonalization with overlap
     ethr =  1.00E-06,  avg # of iterations = 10.0

     total cpu time spent up to now is      312.4 secs

     total energy              =     -33.43771366 Ry
     estimated scf accuracy    <       0.00012089 Ry

     iteration #  2     ecut=    50.00 Ry     beta= 0.70
