
     Program POST-PROC v.7.5 starts on 11Jan2026 at 15:22:58 

     This program is part of the open-source Quantum ESPRESSO suite
     for quantum simulation of materials; please cite
         "P. Giannozzi et al., J. Phys.:Condens. Matter 21 395502 (2009);
         "P. Giannozzi et al., J. Phys.:Condens. Matter 29 465901 (2017);
         "P. Giannozzi et al., J. Chem. Phys. 152 154105 (2020);
          URL http://www.quantum-espresso.org", 
     in publications or presentations arising from this work. More details at
     http://www.quantum-espresso.org/quote

     Serial version
     323 MiB available memory on the printing compute node when the environment starts


     Reading xml data from directory:

     ../tmp/MgB2.save/

     IMPORTANT: XC functional enforced from input :
     Exchange-correlation= PBE
                           (   1   4   3   4   0   0   0)
     Any further DFT definition will be discarded
     Please, verify this is what you really want


     G-vector sticks info
     --------------------
     sticks:   dense  smooth     PW     G-vecs:    dense   smooth      PW
     Sum         847     847    253                22583    22583    3657

     Using Slab Decomposition


     Calling punch_plot, plot_num =   0
     Writing data to file  MgB2.rho.out
     Reading data from file  MgB2.rho.out

     Writing data to be plotted to file MgB2.rho.xsf

     Min, Max, Total, Abs charge:   0.015361  3.390942     16.0000   16.0000
     Plot Type: 3D                     Output format: XCrySDen     

     POST-PROC    :      0.78s CPU      0.80s WALL


   This run was terminated on:  15:22:59  11Jan2026            

=------------------------------------------------------------------------------=
   JOB DONE.
=------------------------------------------------------------------------------=
